# vtk DataFile Version 2.0
Acoustic field
ASCII
DATASET STRUCTURED_POINTS
DIMENSIONS 102 102 1
ORIGIN -0.01 -0.01 0
SPACING 0.0002 0.0002 1
POINT_DATA 10404
SCALARS pressure float 1
LOOKUP_TABLE default
0.0
0.0
0.0
0.0
0.0
0.0
0.0
0.0
0.0
0.0
0.0
0.0
0.0
0.0
0.0
0.0
0.0
0.0
0.0
0.0
0.0
0.0
0.0
0.0
0.0
0.0
0.0
0.0
0.0
0.0
0.0
0.0
0.0
0.0
0.0
0.0
0.0
0.0
0.0
0.0
0.0
0.0
0.0
0.0
0.0
0.0
0.0
0.0
0.0
0.0
-8.214149131711496e-06
0.0
0.0
0.0
0.0
0.0
0.0
0.0
0.0
0.0
0.0
0.0
0.0
0.0
0.0
0.0
0.0
0.0
0.0
0.0
0.0
0.0
0.0
0.0
0.0
0.0
0.0
0.0
0.0
0.0
0.0
0.0
0.0
0.0
0.0
0.0
0.0
0.0
0.0
0.0
0.0
0.0
0.0
0.0
0.0
0.0
0.0
0.0
0.0
0.0
0.0
0.0
0.0
0.0
0.0
0.0
0.0
0.0
0.0
0.0
0.0
0.0
0.0
0.0
0.0
0.0
0.0
0.0
0.0
0.0
0.0
0.0
0.0
0.0
0.0
0.0
0.0
0.0
0.0
0.0
0.0
0.0
0.0
0.0
0.0
0.0
0.0
0.0
0.0
0.0
0.0
0.0
0.0
-1.1314113146737926e-05
-1.6483528155793881e-06
-9.662303853984501e-06
-3.558120494084813e-06
-5.855633564409001e-06
2.889142974271119e-06
-2.4750199976342663e-06
-1.4903519283572608e-06
-1.5009363621237638e-07
-1.501687989060199e-06
3.0502849758185863e-06
3.1714554920885386e-06
7.742030829038e-06
1.345498603561327e-05
6.604530217224096e-06
1.6306421699311205e-05
7.282895481653423e-06
5.7799092401597885e-06
6.6614181953269805e-06
-0.0
0.0
-0.0
0.0
0.0
0.0
0.0
0.0
0.0
0.0
0.0
0.0
0.0
0.0
0.0
0.0
0.0
0.0
0.0
0.0
0.0
0.0
0.0
0.0
0.0
0.0
0.0
0.0
0.0
0.0
0.0
0.0
0.0
0.0
0.0
0.0
0.0
0.0
0.0
0.0
0.0
0.0
0.0
0.0
0.0
0.0
0.0
0.0
0.0
0.0
0.0
0.0
0.0
0.0
0.0
0.0
0.0
0.0
0.0
0.0
0.0
0.0
0.0
0.0
0.0
0.0
0.0
0.0
0.0
0.0
0.0
0.0
0.0
0.0
0.0
0.0
0.0
0.0
2.0531857782122906e-05
-1.7762888453648026e-06
1.7956159521134392e-05
3.3615504726332453e-06
1.5225022481097266e-05
2.3487143775274042e-06
9.750715907131996e-06
4.77482180900596e-07
5.892461721600817e-06
3.5070597927536697e-06
-9.796060059000154e-08
5.630133024518822e-06
-9.393203065844567e-07
6.708098862315197e-06
-2.368944497127101e-06
2.299653913909387e-06
5.035566301776741e-07
5.082988158346112e-06
4.808454374309873e-07
3.3147566271633917e-06
1.8147211939273968e-06
9.992303299356713e-06
-2.4339442415260163e-06
1.2958341144792623e-05
6.346518532828416e-07
1.8792179271636177e-05
-4.568035914790465e-06
2.4617987470787236e-05
0.0
0.0
0.0
0.0
0.0
0.0
0.0
0.0
0.0
0.0
0.0
0.0
0.0
0.0
0.0
0.0
0.0
0.0
0.0
0.0
0.0
0.0
0.0
0.0
0.0
0.0
0.0
0.0
0.0
0.0
0.0
0.0
0.0
0.0
0.0
0.0
0.0
0.0
0.0
0.0
0.0
0.0
0.0
0.0
0.0
0.0
0.0
0.0
0.0
0.0
0.0
0.0
0.0
0.0
0.0
0.0
0.0
0.0
0.0
0.0
0.0
0.0
0.0
0.0
0.0
0.0
0.0
0.0
0.0
0.0
0.0
-1.4638659637179102e-05
1.0971465486214544e-06
-8.745034738239824e-06
-3.3524829019672306e-07
-5.785730062445593e-06
-5.420165299597163e-07
-7.641630813900927e-06
-3.7324533939243625e-06
-1.0380868749842798e-05
-2.6435352587813565e-06
-6.494385514944115e-06
-5.215678703059809e-06
-7.716259927642154e-06
-4.77299557798934e-06
-4.852349544968866e-06
-2.0107334931405976e-06
3.823813673600057e-06
2.681688791653468e-06
3.3034348386579476e-06
7.729192321750239e-06
4.594790735419395e-06
1.3764565153071325e-05
6.3447988588818635e-06
1.118882320189906e-05
3.843002296344047e-06
5.93628904368053e-06
1.5995998858417824e-06
2.0247317292245066e-06
-2.5773362410851335e-06
1.5476987094404494e-06
-3.5021895430198405e-06
3.595819190745476e-06
-5.115458209800683e-07
1.6366644483558317e-06
-3.778758993503454e-06
-0.0
0.0
0.0
0.0
0.0
0.0
0.0
0.0
0.0
0.0
0.0
0.0
0.0
0.0
0.0
0.0
0.0
0.0
0.0
0.0
0.0
0.0
0.0
0.0
0.0
0.0
0.0
0.0
0.0
0.0
0.0
0.0
0.0
0.0
0.0
0.0
0.0
0.0
0.0
0.0
0.0
0.0
0.0
0.0
0.0
0.0
0.0
0.0
0.0
0.0
0.0
0.0
0.0
0.0
0.0
0.0
0.0
0.0
0.0
0.0
0.0
0.0
0.0
0.0
0.0
1.0212675858169152e-05
1.176791412549438e-05
4.807605209052679e-06
9.482485367544421e-06
4.049346024045486e-06
1.7573285468902565e-05
2.1078729562604846e-06
2.4758114391745018e-05
5.0322500263490875e-06
2.4563011113019767e-05
2.0839137879509425e-06
1.8494594797850183e-05
-2.2701980033922046e-06
1.4042066343791203e-05
-6.60225010701117e-07
4.374781875364095e-06
4.809199769932495e-06
-5.494340339921062e-06
6.718351351091489e-06
-9.583691390971768e-06
7.513704237590666e-06
-5.7002115150691226e-06
6.5520593692691056e-06
-1.029985912621645e-05
1.0619860853663191e-05
-8.873473865186051e-06
1.7084496006021352e-05
-3.845693393501851e-06
2.106299683788851e-05
3.267880673720413e-06
1.89048917035584e-05
-5.106021789832363e-06
1.8747877786623748e-05
-5.254187839947854e-06
9.872111332235871e-06
-9.403172850946351e-07
7.4178689867097455e-06
-2.2161297017282145e-06
5.572277590000896e-06
0.0
0.0
0.0
0.0
0.0
0.0
0.0
0.0
0.0
0.0
0.0
0.0
0.0
0.0
0.0
0.0
0.0
0.0
0.0
0.0
0.0
0.0
0.0
0.0
0.0
0.0
0.0
0.0
0.0
0.0
0.0
0.0
0.0
0.0
0.0
0.0
0.0
0.0
0.0
0.0
0.0
0.0
0.0
0.0
0.0
0.0
0.0
0.0
0.0
0.0
0.0
0.0
0.0
0.0
0.0
0.0
0.0
0.0
0.0
0.0
0.0
-1.3237670298188838e-05
2.408616450759947e-06
-1.2431229972006424e-05
7.412690083840182e-07
-1.4469731246958413e-05
3.674110245002638e-06
-8.824363619794057e-06
3.073814985460468e-06
-8.692788068792185e-06
-1.7970221265363934e-07
-7.758025646699966e-06
-2.6710766855380236e-06
-4.296616608432888e-06
-3.475920968232749e-06
-3.361909470365055e-06
-3.859894228672326e-06
-1.991212521507375e-06
-4.6434181780330605e-06
1.0979308821906765e-06
1.022655096179159e-06
2.6383164862961715e-06
1.6701513230604443e-06
5.308306767683119e-06
9.943832088283368e-06
2.7995528275185548e-06
1.585198770553857e-05
-2.7548864151064004e-07
1.586779802992661e-05
-2.204421551309799e-06
1.1868664481477676e-05
-2.3629199486820543e-08
5.1469710332273134e-06
-6.506077556100885e-06
8.868929441850968e-06
-7.242392220844733e-06
7.141178403930417e-06
-3.5415181768360543e-06
3.2048948653204676e-06
-4.951270154747187e-06
5.245685593595586e-06
-6.289561314556243e-06
2.2692096661541637e-06
-1.0511638252893682e-05
-0.0
0.0
0.0
0.0
0.0
0.0
0.0
0.0
0.0
0.0
0.0
0.0
0.0
0.0
0.0
0.0
0.0
0.0
0.0
0.0
0.0
0.0
0.0
0.0
0.0
0.0
0.0
0.0
0.0
0.0
0.0
0.0
0.0
0.0
0.0
0.0
0.0
0.0
0.0
0.0
0.0
0.0
0.0
0.0
0.0
0.0
0.0
0.0
0.0
0.0
0.0
0.0
0.0
0.0
0.0
0.0
0.0
1.4561848010015146e-05
9.268860408438199e-06
9.164575239274155e-06
9.177924208566803e-06
1.3743028484941897e-05
1.4923936808139805e-05
7.772113936341818e-06
1.626377548775662e-05
2.918479108079481e-06
1.9697480729931118e-05
4.784057999785917e-06
2.093790175491346e-05
7.5721252416931545e-06
2.1793145297104734e-05
3.6451482820049306e-06
1.8767360370616505e-05
1.1222474093183342e-07
1.3407972062840966e-05
1.4754268499613891e-06
6.324999172061012e-06
2.6879053839754184e-06
-4.977403426345308e-06
4.107588119673021e-06
-8.955398842058274e-06
1.1397097847049136e-05
-8.278502187295875e-06
1.1594380616155966e-05
-1.4605122616467139e-05
1.3793416420386898e-05
-1.569207923473597e-05
2.1430288113513166e-05
-1.0657481643465952e-05
2.2073455659209935e-05
-7.410441871872705e-06
2.005401390181622e-05
-5.8982827756995525e-06
1.7744498349773813e-05
-3.9103905769311743e-07
1.5626737784086326e-05
2.9009659119782497e-06
8.775543172065487e-06
2.6546923324788416e-06
4.634297282270744e-06
2.0674602761885013e-06
7.590732847662605e-06
6.360116687676954e-08
4.744512256883861e-06
0.0
0.0
0.0
0.0
0.0
0.0
0.0
0.0
0.0
0.0
0.0
0.0
0.0
0.0
0.0
0.0
0.0
0.0
0.0
0.0
0.0
0.0
0.0
0.0
0.0
0.0
0.0
0.0
0.0
0.0
0.0
0.0
0.0
0.0
0.0
0.0
0.0
0.0
0.0
0.0
0.0
0.0
0.0
0.0
0.0
0.0
0.0
0.0
0.0
0.0
0.0
0.0
0.0
-8.086516541717292e-06
-4.637236271272648e-06
-7.038829770567945e-06
-6.274381815498199e-06
-9.98954742119311e-06
-2.8307205729078642e-06
-7.980515120955304e-06
-1.6043777900610842e-06
-1.2768240094420147e-05
1.33991889166573e-06
-3.712423688151356e-06
4.349524304933176e-06
-4.006901712006497e-06
-1.6219647380054075e-06
-5.277119324094852e-06
-1.8544315763372461e-06
5.620714012299254e-07
-5.60274670634568e-06
-5.482061077264671e-07
-5.635445170197067e-06
-1.3503499978178522e-06
-3.567319294820325e-06
5.237628169251104e-06
-1.9580680331188674e-06
6.967604986592372e-06
8.00442789604133e-06
6.162780699563334e-06
1.626531963522417e-05
1.072957272106416e-06
2.06899228828329e-05
-1.1725919337137786e-06
1.9215284604123236e-05
-3.053660707771885e-06
1.931457713773681e-05
-4.061258699624944e-06
1.966477527885709e-05
-9.75176694462512e-06
1.709939953683991e-05
-9.340842512444068e-06
1.1854613628472415e-05
-1.29078037039313e-05
3.603790687100865e-06
-1.314282571124637e-05
4.3166333228181515e-06
-8.469080068659895e-06
4.81120425369772e-06
-9.698321827773216e-06
2.3201770163619592e-07
-2.6428158698815133e-06
-1.2717090759222997e-06
-4.844976993297282e-07
-0.0
0.0
0.0
0.0
0.0
0.0
0.0
0.0
0.0
0.0
0.0
0.0
0.0
0.0
0.0
0.0
0.0
0.0
0.0
0.0
0.0
0.0
0.0
0.0
0.0
0.0
0.0
0.0
0.0
0.0
0.0
0.0
0.0
0.0
0.0
0.0
0.0
0.0
0.0
0.0
0.0
0.0
0.0
0.0
0.0
0.0
0.0
0.0
0.0
-5.732700675202791e-07
3.8143421698965175e-06
4.4221881423772475e-06
8.303410184106267e-06
7.318333503472366e-06
9.957931963572253e-06
7.763129606695285e-06
1.3337859672920437e-05
7.128934297965582e-06
1.6246561968235232e-05
4.904601361621391e-06
1.9314109597443095e-05
1.0220575924800128e-06
1.8349786041592933e-05
2.5732272116820952e-06
1.4776417908160567e-05
1.9267220272894075e-06
6.2742634938378035e-06
-3.249878232973038e-06
1.0787718870223238e-05
-4.247736708296072e-06
8.583287072059335e-06
-1.539664758925505e-06
1.3017419786855505e-06
1.7767007411031975e-06
-6.8002619897045756e-06
4.111631181724141e-06
-1.0671675797089242e-05
9.442655824389331e-06
-1.1380216587451918e-05
1.321818533029239e-05
-1.4479956445520631e-05
2.0979926291159512e-05
-1.417644528141397e-05
2.644571520442966e-05
-9.498055367776017e-06
2.777097280601039e-05
-5.605817819634973e-06
2.533570188013333e-05
-2.021555757270866e-06
2.4829028807556647e-05
-7.222187540363573e-07
2.1839491525305346e-05
1.6161348540120189e-06
1.1142707134357232e-05
5.849346583766785e-06
6.366954722270563e-06
-1.0257520012510924e-07
6.3593750162074016e-06
-1.2397438896777892e-06
4.275284438008154e-06
-1.5817344122683004e-06
2.322402717302613e-06
-5.626594241772226e-06
4.240177964175634e-06
0.0
0.0
0.0
0.0
0.0
0.0
0.0
0.0
0.0
0.0
0.0
0.0
0.0
0.0
0.0
0.0
0.0
0.0
0.0
0.0
0.0
0.0
0.0
0.0
0.0
0.0
0.0
0.0
0.0
0.0
0.0
0.0
0.0
0.0
0.0
0.0
0.0
0.0
0.0
0.0
0.0
0.0
0.0
0.0
0.0
0.0
-1.873963632061158e-05
6.768880232853365e-09
-1.5590858837217115e-05
-3.8036498430585545e-06
-1.2843118070853772e-05
-3.995547643792688e-06
-7.35293749226603e-06
-4.470265137780717e-06
-1.925761115922515e-06
-4.131629950174635e-06
-2.0033317724143063e-06
-2.6181970508231617e-06
1.4097351413243045e-06
-2.3692483755643495e-07
1.4394447810009587e-06
4.394358578385622e-06
-4.751159726234497e-06
-6.272890508105045e-07
-8.871906038105028e-06
1.9950975874342344e-06
-8.430734168249705e-06
3.3915337010107004e-06
-7.966332261579854e-06
3.271440732769441e-06
-5.404666501714228e-06
1.2159805172232083e-05
2.06532404440849e-06
1.3298223883668217e-05
7.68920592841987e-06
1.0472149951273043e-05
1.615940378433768e-05
5.630206754323112e-06
2.0847355085777173e-05
6.060147020608614e-06
2.53584062368865e-05
-1.7926441836577159e-06
2.8472521780928175e-05
-7.204039394307911e-06
2.5909756228710548e-05
-1.092239590554643e-05
1.989932487423488e-05
-1.5273165362412143e-05
1.1607334473965794e-05
-1.8856930608954013e-05
1.1769913471152139e-05
-1.5645545854275304e-05
1.0918185352930398e-05
-1.1267742916455014e-05
1.0589962097398328e-05
-7.774599006719491e-06
3.735346395350635e-06
-9.108900426417335e-06
5.898181222207743e-06
-2.667717903197307e-06
4.580744854638561e-06
-1.1243507855237227e-06
1.629863955271709e-08
-0.0
0.0
0.0
0.0
0.0
0.0
0.0
0.0
0.0
0.0
0.0
0.0
0.0
0.0
0.0
0.0
0.0
0.0
0.0
0.0
0.0
0.0
0.0
0.0
0.0
0.0
0.0
0.0
0.0
0.0
0.0
0.0
0.0
0.0
0.0
0.0
0.0
0.0
0.0
0.0
0.0
0.0
0.0
2.6838394985513433e-05
-4.1569355387770984e-06
1.861800355933108e-05
-3.651082060006257e-07
1.234027764273557e-05
-6.053066306815071e-07
1.039872695711843e-05
-2.106106571399202e-06
1.03867080395355e-05
2.0435432527031913e-06
1.0113527356722892e-05
4.575776409867909e-06
1.2613648383148166e-05
4.562781180065875e-06
1.6830761877370315e-05
-1.2864532171780553e-06
1.688721854871175e-05
-4.519474272020424e-06
7.855533979524059e-06
-1.5297986114950142e-06
-6.498596868803168e-07
-2.783021544660973e-06
-1.1594879255719715e-06
-4.184689776139356e-07
1.6692035628539626e-06
-8.201904865216865e-07
-8.242526959412131e-06
2.7945038695876956e-06
-1.2704360736455737e-05
6.0034879629754e-06
-1.411213336241035e-05
8.427798122216146e-06
-1.2847241731395601e-05
1.610027917221061e-05
-8.566122020312065e-06
1.574416907061879e-05
-1.948730572860285e-05
2.2485570073900645e-05
-1.086179779889523e-05
2.515166814698753e-05
-4.526298380127894e-06
2.527729710481753e-05
-2.22706335174502e-06
2.099138160390803e-05
7.472008914782774e-07
1.832315775226425e-05
8.657692863025309e-06
1.1911433822565997e-05
7.67621436247534e-06
4.7213309995905974e-06
3.2929431750077557e-06
8.798233629626468e-06
2.5355164834850914e-06
2.99059869598538e-06
1.4063684358656555e-06
-3.838010660190997e-06
-4.619947617638581e-06
-3.7283385747840886e-06
-9.961774309059953e-06
-8.774378487287681e-07
0.0
-0.0
0.0
0.0
0.0
0.0
0.0
0.0
0.0
0.0
0.0
0.0
0.0
0.0
0.0
0.0
0.0
0.0
0.0
0.0
0.0
0.0
0.0
0.0
0.0
0.0
0.0
0.0
0.0
0.0
0.0
0.0
0.0
0.0
0.0
0.0
0.0
0.0
0.0
0.0
0.0
6.402477564856773e-06
-9.669418257105916e-06
1.6581980966506854e-06
-1.508916015466287e-05
5.9297952251888285e-06
-1.9147420457502905e-05
2.43324965377975e-06
-1.4284281072288832e-05
3.1281652893385677e-06
-7.5235411029736325e-06
-4.834304842987905e-07
-1.387894961020204e-06
2.1964620292745533e-06
-1.59508426649122e-06
2.4909483713887326e-06
-9.943755291392529e-07
5.333003168796118e-06
-8.514920774321612e-07
1.825314025089091e-06
-9.331579344107707e-06
3.382560163782984e-06
-1.1209267949702201e-05
2.049699052771715e-06
-1.305442194069319e-05
2.3258999627723824e-06
-1.2201782574510416e-05
8.89274251411869e-06
-1.0960385647680089e-05
1.352670546337956e-05
-2.0831911967545307e-06
1.2895098041387759e-05
7.86531164818616e-06
8.322128004119503e-06
1.2492867625448156e-05
1.2467177537740535e-05
2.1122660838442614e-05
1.0686063272714366e-05
2.64399850283247e-05
4.610145755326632e-06
3.121694336974523e-05
1.8635579642469715e-06
3.103649540499194e-05
-5.816286093490371e-06
2.278539235955674e-05
-1.0278539661809329e-05
2.0575685419820976e-05
-1.2051456655986232e-05
1.4084503036794398e-05
-1.5263543092534953e-05
1.7127039315201557e-05
-1.2916675282593337e-05
1.4374916946653606e-05
-5.841538968749744e-06
1.0009342227692532e-05
-4.34554433108933e-06
1.1218333243910228e-05
-3.127254001990512e-07
1.1769320620048838e-05
-3.0434905460378738e-06
7.454480708663662e-06
-6.980594667034391e-06
4.809649341890824e-06
-2.3792754928513997e-06
-0.0
0.0
0.0
0.0
0.0
0.0
0.0
0.0
0.0
0.0
0.0
0.0
0.0
0.0
0.0
0.0
0.0
0.0
0.0
0.0
0.0
0.0
0.0
0.0
0.0
0.0
0.0
0.0
0.0
0.0
0.0
0.0
0.0
0.0
0.0
0.0
0.0
0.0
3.2765069595036476e-05
-5.2305112760797075e-06
3.0407290420753597e-05
-1.0940394706706842e-05
2.024581746663631e-05
-8.792697299749383e-06
1.0781461735813901e-05
-6.6957044238271876e-06
1.0983983323180078e-05
-1.2795264165716271e-05
1.1571201946293379e-05
-1.121119218862401e-05
5.7314374255086505e-06
-8.865224051842115e-06
7.255261676269936e-07
-6.874684731516057e-06
2.0279306599963937e-06
-5.161151746052104e-06
-6.582422918659811e-07
-2.962822306693968e-06
-4.523439155078843e-06
-4.5607399024103505e-06
-7.390859043667364e-06
-1.7474082272167143e-06
-3.7900213876914e-06
-1.1054159847654573e-06
-2.9046576186885706e-06
-5.042537083873907e-06
-8.985717542782783e-06
1.7053207858966887e-06
-1.3574931148755934e-05
1.6650782991584709e-06
-1.611216284397814e-05
5.231814683520542e-07
-1.7041522587980795e-05
4.46646562704689e-06
-1.7877625948925923e-05
1.0183452944363034e-05
-1.7832805354614687e-05
1.6440935703679193e-05
-1.0601583818638377e-05
1.949364423488774e-05
1.0729331383094108e-06
2.0822375416035784e-05
7.398673779000394e-06
1.639615274999866e-05
7.849039609733881e-06
1.9123536401083927e-05
1.4452978963022854e-05
1.6548164979277593e-05
1.2713334261200951e-05
5.322532672541143e-06
7.706781682342036e-06
6.1960061328992935e-06
6.8735815053568e-06
6.35479337677388e-06
5.416551728892602e-06
-2.9825672471448176e-06
-3.231856151347339e-06
-1.6086689941449058e-07
-9.700330740525574e-06
1.3733921870847111e-06
-3.867231532651257e-06
2.2113362833362665e-06
3.8059261262418893e-06
-0.0
0.0
0.0
0.0
0.0
0.0
0.0
0.0
0.0
0.0
0.0
0.0
0.0
0.0
0.0
0.0
0.0
0.0
0.0
0.0
0.0
0.0
0.0
0.0
0.0
0.0
0.0
0.0
0.0
0.0
0.0
0.0
0.0
0.0
0.0
0.0
-1.2290829929425854e-06
-9.051665543119644e-06
8.568666905285988e-07
-1.931867727651225e-05
4.373701016999753e-06
-2.4939964005543156e-05
4.75958690873016e-06
-2.436887246111732e-05
4.519178799437094e-06
-2.1600179908971648e-05
5.367534246691327e-06
-1.6181241148393453e-05
8.611306465633084e-06
-6.816342075597769e-06
6.20275541715734e-06
-3.405883917689987e-06
6.2123729665300355e-06
-2.6398763778817317e-06
6.167325745281716e-06
-1.00599827181436e-06
4.441568737384201e-06
-6.076145008407098e-06
-1.0201205053591097e-07
-1.3613662098356757e-05
4.3866195122968775e-06
-1.58778922810027e-05
6.94880047774721e-06
-1.5545907641917782e-05
3.1446181077797346e-06
-1.3191535750474632e-05
1.0653787114250002e-05
-5.2520681282081165e-06
1.1470771129854272e-05
2.582560735259751e-06
9.490238958455137e-06
1.285902398750426e-05
1.1252590400373139e-05
1.9881088594278586e-05
8.98627800929036e-06
2.7668657515734046e-05
9.210013304635363e-06
3.256097730775964e-05
3.721328731861638e-06
2.7398534399531857e-05
1.1252608592644056e-06
2.584945871973831e-05
-3.929584841975395e-06
2.224657195125109e-05
-7.676828955857274e-06
1.6784737283275536e-05
-1.1481989649685759e-05
1.6147793688127122e-05
-1.0173879420297694e-05
1.2424101239853903e-05
-7.297212570520136e-06
7.733353196564805e-06
-5.034033336113532e-06
1.0131411573888685e-05
9.309599199082692e-07
1.3251392261810982e-05
-3.892886472389397e-06
1.03046965349085e-05
-8.65623167439435e-06
6.338649684621923e-06
-3.2848196244588567e-06
6.103513750250077e-06
-4.155874420655094e-06
-0.0
0.0
0.0
0.0
0.0
0.0
0.0
0.0
0.0
0.0
0.0
0.0
0.0
0.0
0.0
0.0
0.0
0.0
0.0
0.0
0.0
0.0
0.0
0.0
0.0
0.0
0.0
0.0
0.0
0.0
0.0
0.0
0.0
0.0
2.9986069856755418e-05
-6.1365627462694945e-06
2.882435567897059e-05
-1.4758905670813039e-05
2.798862176211998e-05
-2.1101033640620705e-05
1.8353957580069504e-05
-2.0482718790753214e-05
4.718235041639679e-06
-2.0689578761987203e-05
4.87042084668038e-06
-2.135067355266885e-05
5.3860021198917516e-06
-2.283656205898562e-05
-3.0426762755487347e-06
-1.748902363826993e-05
-1.3151099608669654e-05
-1.3102415665865547e-05
-1.0612244606400592e-05
-8.707040463609168e-06
-1.6337577563732076e-05
-4.596081124055736e-06
-2.1010031210453276e-05
-3.897449733515413e-06
-1.4617980170604362e-05
-5.915074924491754e-06
-1.7017281740809857e-05
-6.6060280200812105e-06
-1.5715587169332566e-05
-1.1214502382948333e-05
-1.3135489383040885e-05
-7.302623748071657e-06
-1.4288497381787383e-05
-6.240048782390729e-06
-1.402291522318977e-05
-5.82059579570361e-06
-1.76628440676738e-05
-3.744096289118691e-06
-1.6578061124170107e-05
3.127925006779376e-07
-9.56379018453251e-06
9.66292893717554e-06
-9.049176083553657e-06
1.3323564891011127e-05
-6.732157591808447e-07
1.6006157689241248e-05
1.1767142098261674e-05
1.5652826907017223e-05
1.7630344114222962e-05
1.737020773815028e-05
1.7784768150303454e-05
1.57754224070276e-05
1.5769805504797555e-05
8.105024318512623e-06
9.396236689384132e-06
1.2071354960526973e-05
5.7224255213909466e-06
7.985048060172382e-06
1.804191150180822e-06
4.220253677199385e-06
-5.398077651833902e-06
8.75679981348867e-07
-1.0222475525217076e-05
2.4917116841812547e-06
-4.088533251870064e-06
9.498387184094613e-07
5.519741555178518e-07
-6.472115722321451e-06
5.821563426594741e-06
-0.0
0.0
0.0
0.0
0.0
0.0
0.0
0.0
0.0
0.0
0.0
0.0
0.0
0.0
0.0
0.0
0.0
0.0
0.0
0.0
0.0
0.0
0.0
0.0
0.0
0.0
0.0
0.0
0.0
0.0
0.0
0.0
2.27734178301756e-06
-7.689308147603316e-06
-1.1271873560519395e-06
-1.8010036251207682e-05
2.6375316156849457e-06
-2.4627996184302722e-05
2.6745732005301003e-06
-2.805259119561444e-05
2.949119887844092e-06
-3.0326552308472317e-05
4.437045109930204e-06
-2.6474232430051793e-05
7.160212731386739e-06
-1.8106469597813864e-05
4.447259556322616e-06
-5.925460645513359e-06
5.275284866537512e-06
-3.134853855645793e-06
2.5661391027814494e-06
-1.924123324633551e-06
1.306914903675537e-06
-6.219675116370185e-07
8.949081627327723e-07
-7.292510006464055e-06
-2.0736000339461455e-06
-1.37614050617328e-05
-1.4710888768658162e-06
-2.0798370250926275e-05
-2.278889379501441e-06
-2.0719443363263925e-05
-4.086922282759668e-06
-1.6270183164578192e-05
5.126676188850514e-06
-1.1550021108209432e-05
9.13947744442461e-06
-1.5618981742081384e-06
6.234686290978062e-06
5.297746287085925e-06
1.0805249905067259e-05
1.3819849670254207e-05
1.3428498286716863e-05
1.945105801208598e-05
1.2135534447133052e-05
2.5138528212220496e-05
7.288082673161179e-06
2.072850019034293e-05
4.6400313978389725e-06
1.7847235531352177e-05
-4.532225114745184e-06
2.2247552679524442e-05
-6.32219943594098e-06
1.763639046456934e-05
-6.037656504977216e-06
1.7560299398874607e-05
-8.137229431088777e-06
1.6057146084908627e-05
-6.437001340192464e-06
1.2217507033554585e-05
-1.0656756961407059e-06
1.543205732384798e-05
-3.2458791818501592e-06
1.5588578177546452e-05
-1.2494899942750195e-06
1.1641355043550999e-05
-3.688410568372057e-06
8.472877112998026e-06
-3.2993947552980453e-06
1.3008046596126654e-05
-4.578047690125221e-06
4.781082522359231e-06
-3.2139208060258334e-06
-0.0
0.0
0.0
0.0
0.0
0.0
0.0
0.0
0.0
0.0
0.0
0.0
0.0
0.0
0.0
0.0
0.0
0.0
0.0
0.0
0.0
0.0
0.0
0.0
0.0
0.0
0.0
0.0
0.0
0.0
2.4383194128537406e-05
-1.1220879935213436e-05
2.31573598476484e-05
-1.6095607697123428e-05
2.0620001595046885e-05
-2.3105801596074037e-05
1.829928672399642e-05
-3.201875545505211e-05
7.4153059356965245e-06
-3.187959675107934e-05
1.169469894071302e-06
-3.020026990158102e-05
2.6813862093146724e-06
-3.0511077018779727e-05
6.434146454472571e-07
-2.9244192104682042e-05
-1.27629723643736e-05
-2.0545129294462046e-05
-2.050404278805306e-05
-1.7145268790917024e-05
-2.649113454595977e-05
-1.4190708832808779e-05
-2.799836557182656e-05
-5.989880013026709e-06
-3.184840506935892e-05
-1.1874558477893397e-06
-2.7840169657363958e-05
-6.653590460848412e-06
-2.7238700673162332e-05
-8.535738252100948e-06
-2.4385064357543418e-05
-1.0446210402634329e-05
-1.6904041741613227e-05
-1.38147183884015e-05
-1.3941307711798739e-05
-1.0934029566425448e-05
-1.224931463940492e-05
-1.2210881705520476e-05
-1.5562045435899862e-05
-9.562074412172566e-06
-7.485812034159638e-06
-5.418442168219506e-06
-2.7891844973202424e-07
-1.8901181221034755e-06
-1.8779618278097747e-06
6.16739130606577e-06
5.6283058051321945e-06
1.0719358720411679e-05
1.1971060269257956e-05
1.3718415879557788e-05
1.7159969629436563e-05
1.38836054507266e-05
2.2567156495310698e-05
1.0742052956750155e-05
2.053202997825392e-05
1.2919644467128368e-05
1.3636938666489708e-05
1.2252742881926937e-05
5.111220621856477e-06
1.2459706195380348e-05
-1.912720882880587e-06
6.919480238578434e-06
-3.833588779487437e-06
3.575856580994021e-06
-7.940340266893301e-07
8.197363370271955e-06
3.0128958890456727e-06
3.2142623512916396e-06
5.979353239453985e-06
-3.3935300408561694e-06
4.825601509544233e-06
-1.4277828418006074e-07
1.1959696768201333e-05
-0.0
0.0
0.0
0.0
0.0
0.0
0.0
0.0
0.0
0.0
0.0
0.0
0.0
0.0
0.0
0.0
0.0
0.0
0.0
0.0
0.0
0.0
0.0
0.0
0.0
0.0
0.0
0.0
8.75073560335762e-06
-4.9123944612162135e-06
8.344833740325367e-07
-1.212759443569514e-05
-4.766815081672913e-06
-2.0930028947780392e-05
-7.253606442244093e-07
-2.8161880285274423e-05
-2.0209031508399233e-07
-2.8612560621956285e-05
1.4724238606295253e-06
-2.7166011956226706e-05
2.0140833110031955e-06
-2.427732995871559e-05
7.927113656885694e-06
-1.7955044134641163e-05
7.305809011725712e-06
-7.140481739692988e-06
1.7599003481391314e-06
-5.771852758385603e-06
6.85185386453159e-07
-1.5375225224416263e-06
-2.5045260525857817e-06
4.6213091553686086e-08
-7.161559247097282e-06
-9.037224225958325e-06
-1.0683186690775494e-05
-1.563597551986808e-05
-9.978707286181747e-06
-1.7312856348841356e-05
-9.890292441173806e-06
-1.8235256309417115e-05
-8.602308482893808e-06
-1.6802743164402368e-05
-1.5568529034210046e-06
-1.4798488535998503e-05
2.224662287339981e-06
-1.2828513351993857e-05
3.833465274032189e-06
-7.326200488450401e-06
8.864992150062397e-06
7.740780759091726e-07
9.017537205283616e-06
4.338801757447271e-06
1.3094135842791318e-05
1.1241639840682839e-05
1.613566720954267e-05
9.583772714571585e-06
1.0744578624094127e-05
9.384323838120105e-06
-7.495848713992533e-07
1.0892810261378636e-05
-1.0693737084642429e-06
1.3083903803863708e-05
1.352713747568845e-06
1.611641499093403e-05
-4.1135242394312525e-06
1.653958771174255e-05
-4.2641929329381355e-06
1.784826942897464e-05
-4.035525794200421e-06
1.583872763527216e-05
-2.7682488764195133e-06
1.7741458750058813e-05
-3.4792265315392325e-07
9.602031534268483e-06
3.0819111517737735e-06
1.0608945891498258e-05
6.97612682437508e-07
8.762570445999465e-06
-3.757949314163702e-08
9.198180490506773e-06
-4.144088871896447e-06
4.414475080915495e-06
-5.552216007639652e-06
-0.0
0.0
0.0
0.0
0.0
0.0
0.0
0.0
0.0
0.0
0.0
0.0
0.0
0.0
0.0
0.0
0.0
0.0
0.0
0.0
0.0
0.0
0.0
0.0
0.0
0.0
2.288720806021771e-05
-9.34582427037724e-06
1.883801626502069e-05
-1.8646078774030146e-05
1.7953730181064452e-05
-2.5753132366299706e-05
1.232993758183458e-05
-2.6589160282755397e-05
1.2217750932578521e-05
-3.645514125395985e-05
3.7340361413752973e-06
-3.558045729008319e-05
3.9098654699982694e-07
-3.3231240808913325e-05
-9.301413587573755e-07
-3.0392139766062042e-05
-8.225277362510775e-06
-2.853240696269077e-05
-1.961488383507496e-05
-2.2488846381229373e-05
-2.1428910380017495e-05
-1.2761551876558955e-05
-2.7819316095789743e-05
-1.136167538413422e-05
-3.583889469294482e-05
-1.9946002496997647e-06
-3.6917957246028116e-05
1.3203081073060505e-06
-2.979493096384654e-05
-4.768732280861673e-07
-2.7113705721063574e-05
-5.802060573167088e-06
-2.5196330688104552e-05
-7.031070507164601e-06
-1.549355826810471e-05
-5.119079265727862e-06
-1.2661483968978091e-05
-1.0993112344200221e-05
-1.359612073011698e-05
-1.8604298893129543e-05
-1.1298406497811697e-05
-2.130651575301146e-05
-3.581776551279509e-06
-1.7849708424355736e-05
3.261543088613562e-06
-1.7107516646306693e-05
-1.697507053222232e-06
-1.0052552068294408e-05
2.1036502028323516e-06
-2.000226011175886e-07
1.1244018224728304e-05
5.092235069290077e-06
1.8478563777564175e-05
1.1779474737925143e-05
2.2415679790631024e-05
8.98435613325549e-06
2.265574030851029e-05
4.833204291867943e-06
2.0368525620727806e-05
8.09566894867133e-06
1.271701694180983e-05
1.0571744100646426e-05
7.671532337329046e-07
6.0934838025149356e-06
-8.015013917388689e-06
3.504161883575394e-06
-2.85211683294681e-06
7.431599901020901e-06
3.2360618281941982e-06
4.2435065216241036e-06
5.685360013920913e-06
1.9056004028254895e-06
5.4541608787297985e-06
1.9860702936792461e-07
1.3534819479700584e-05
1.0398358074964205e-07
1.4234979091168947e-05
-0.0
0.0
0.0
0.0
0.0
0.0
0.0
0.0
0.0
0.0
0.0
0.0
0.0
0.0
0.0
0.0
0.0
0.0
0.0
0.0
0.0
0.0
0.0
0.0
6.722160704374404e-06
-2.9680063017260517e-06
4.140567962033202e-06
-9.057618117968978e-06
1.1949661727076517e-06
-1.2135059265417535e-05
-2.9606859101509055e-06
-1.853248473998424e-05
-2.6188515519416352e-06
-2.551069803868162e-05
-3.1303987951119592e-06
-2.8758299650391124e-05
-2.198846562716085e-06
-2.8000921827299823e-05
3.815446731103559e-07
-2.163151513051472e-05
4.733162126316359e-06
-1.4166517117729139e-05
4.910725630671465e-06
-5.988661942122048e-06
7.358703448980502e-07
-4.718843417609613e-06
-3.319234092336835e-06
1.9265225955984127e-06
-3.8163128612574025e-06
3.330870260329107e-06
-1.0708348433469465e-05
-4.824903541197987e-06
-1.5441221006602728e-05
-9.195153351921493e-06
-1.2011726734357926e-05
-1.5945943398809624e-05
-1.3101109890980732e-05
-1.586836047729039e-05
-9.213349981523266e-06
-1.4888802000879404e-05
-1.018339328338111e-05
-1.4346196652090965e-05
-6.5886035761735555e-06
-1.5509920500688883e-05
-4.797772366271188e-06
-1.4232209876609295e-05
2.704643914857485e-06
-1.0749342238501898e-05
9.166903212344218e-06
-5.794217216354079e-06
8.638264817643967e-06
1.482621810124647e-06
1.079769174067906e-05
6.856581768045629e-07
1.1568224009481054e-05
1.141365743836735e-06
7.618569342011659e-06
2.442139568089642e-06
1.3571425759034657e-06
3.240908141803135e-06
3.124501712602321e-06
3.4568841507127924e-06
5.2754118225792e-06
1.0686776056515638e-05
1.2973237666785107e-06
1.3692565629412686e-05
1.3791822502917243e-06
1.2977298823975036e-05
2.810915521194021e-06
1.2372630619201604e-05
1.9389942087729728e-06
1.1075080108930435e-05
3.880917104096969e-06
9.919959200311743e-06
4.616912653002758e-06
1.3029117034079571e-05
9.974470835770598e-07
1.6993995240609866e-05
-5.660268701342336e-06
1.1781511217299905e-05
-5.131582660362125e-06
9.358960151208397e-06
-3.6201893305276364e-06
-0.0
0.0
0.0
0.0
0.0
0.0
0.0
0.0
0.0
0.0
0.0
0.0
0.0
0.0
0.0
0.0
0.0
0.0
0.0
0.0
0.0
0.0
1.7209483378890382e-05
-9.146860827082353e-06
1.8247676874321248e-05
-1.531516414392829e-05
1.728513223303238e-05
-2.5148703088236954e-05
6.061159229292097e-06
-3.103257426118142e-05
5.483152253815924e-06
-3.226249993482419e-05
3.556074377068778e-06
-3.1766594784794896e-05
4.4935572862482863e-07
-3.3333784067506736e-05
-4.321054570380635e-06
-3.095785797632875e-05
-1.4250882486144807e-06
-3.2593480833412526e-05
-9.366412321763263e-06
-2.9612323556894243e-05
-2.51326749680906e-05
-2.0261065311609864e-05
-2.41197912787332e-05
-1.3440904023548393e-05
-2.8432874246939644e-05
-8.701393601939345e-06
-4.236965232120527e-05
5.64569317392707e-07
-4.4029912674005715e-05
4.506815814609517e-06
-3.6068173277505586e-05
3.696005198808204e-06
-2.727316893450787e-05
3.18908836932029e-08
-2.3755378448882697e-05
-2.8187476664242366e-06
-1.4134931113217914e-05
-6.1156296545485594e-06
-8.412455245148507e-06
-1.0395313605667396e-05
-1.0425376407022282e-05
-1.836573781339002e-05
-1.1436292793853904e-05
-2.0987422936011202e-05
-9.4482367122959e-06
-2.371055116685464e-05
-2.606659439601328e-06
-2.66481007424468e-05
-6.608845816854306e-08
-2.2144776948978637e-05
4.065751553916649e-06
-1.1813728279275096e-05
1.73779835558693e-05
-6.903490403113512e-06
2.8516096590385917e-05
4.141607465790291e-06
2.3315184918288492e-05