# vtk DataFile Version 2.0
Acoustic field
ASCII
DATASET STRUCTURED_POINTS
DIMENSIONS 102 102 1
ORIGIN -0.01 -0.01 0
SPACING 0.0002 0.0002 1
POINT_DATA 10404
SCALARS pressure float 1
LOOKUP_TABLE default
0.0
0.0
0.0
0.0
0.0
0.0
0.0
0.0
0.0
0.0
0.0
0.0
0.0
0.0
0.0
0.0
0.0
0.0
0.0
0.0
0.0
0.0
0.0
0.0
0.0
0.0
0.0
0.0
0.0
0.0
0.0
0.0
0.0
0.0
0.0
0.0
0.0
0.0
0.0
0.0
0.0
-0.0
-0.0
-0.0
-0.0
-0.0
-0.0
-0.0
-0.0
-0.0
7.845470958490043e-07
-0.0
-0.0
-0.0
-0.0
-0.0
-0.0
-0.0
-0.0
-0.0
0.0
0.0
0.0
0.0
0.0
0.0
0.0
0.0
0.0
0.0
0.0
0.0
0.0
0.0
0.0
0.0
0.0
0.0
0.0
0.0
0.0
0.0
0.0
0.0
0.0
0.0
0.0
0.0
0.0
0.0
0.0
0.0
0.0
0.0
0.0
0.0
0.0
0.0
0.0
0.0
0.0
0.0
0.0
0.0
0.0
0.0
0.0
0.0
0.0
0.0
0.0
0.0
0.0
0.0
0.0
0.0
0.0
0.0
0.0
0.0
0.0
0.0
0.0
0.0
0.0
0.0
0.0
0.0
0.0
0.0
0.0
0.0
0.0
0.0
0.0
0.0
0.0
0.0
0.0
0.0
0.0
-0.0
-0.0
-5.5619557259948475e-06
-8.290535302802856e-06
-3.6572467844297945e-06
-7.613039816196567e-06
-5.817424966921529e-06
-5.516551381438051e-06
-7.096176599817424e-06
-4.376306974779316e-06
-5.62374266739308e-06
-6.285957879670715e-06
-5.756811927354876e-06
-1.3555753272903905e-05
-1.0476294012997924e-05
-9.495702270446634e-06
-1.2727579967366441e-05
-6.5156581724739484e-06
-1.0491382262989886e-05
-1.0737085316729024e-05
-1.2610579762711609e-05
-0.0
0.0
-0.0
0.0
0.0
0.0
0.0
0.0
0.0
0.0
0.0
0.0
0.0
0.0
0.0
0.0
0.0
0.0
0.0
0.0
0.0
0.0
0.0
0.0
0.0
0.0
0.0
0.0
0.0
0.0
0.0
0.0
0.0
0.0
0.0
0.0
0.0
0.0
0.0
0.0
0.0
0.0
0.0
0.0
0.0
0.0
0.0
0.0
0.0
0.0
0.0
0.0
0.0
0.0
0.0
0.0
0.0
0.0
0.0
0.0
0.0
0.0
0.0
0.0
0.0
0.0
0.0
0.0
0.0
0.0
0.0
0.0
0.0
0.0
0.0
-0.0
-0.0
-0.0
4.4191150606120204e-05
1.0843258451042146e-05
4.3618808088513105e-05
5.671888989306748e-06
3.251845240771702e-05
4.916852292658371e-06
1.696380502468232e-05
-5.61618095158532e-07
8.502387457349092e-06
5.652395430137806e-07
7.494832206296094e-06
5.812270505283279e-07
3.4866965095512397e-06
-6.285884534982906e-07
5.108340265641432e-06
-1.4968848660572842e-06
8.101392742960657e-06
1.7260696280477187e-06
2.8589720232773587e-06
6.409300199412153e-06
3.6680357405510355e-06
5.117954366338756e-06
4.896306967758605e-06
7.325201047579556e-06
8.295210859907267e-06
9.095602401118839e-06
4.88319056238052e-06
1.004388366151775e-05
-0.0
-0.0
-0.0
-0.0
0.0
0.0
0.0
0.0
0.0
0.0
0.0
0.0
0.0
0.0
0.0
0.0
0.0
0.0
0.0
0.0
0.0
0.0
0.0
0.0
0.0
0.0
0.0
0.0
0.0
0.0
0.0
0.0
0.0
0.0
0.0
0.0
0.0
0.0
0.0
0.0
0.0
0.0
0.0
0.0
0.0
0.0
0.0
0.0
0.0
0.0
0.0
0.0
0.0
0.0
0.0
0.0
0.0
0.0
0.0
0.0
0.0
0.0
0.0
0.0
0.0
0.0
0.0
0.0
0.0
0.0
0.0
7.262077631193948e-06
-1.2765818917970161e-06
1.052820519176314e-06
-2.011122490735518e-06
-4.264241203584972e-06
-2.3232235395147262e-06
-7.828327764548997e-06
-3.6179143024303585e-06
-7.77673262730196e-06
-7.251751474879045e-06
-6.923655688819172e-06
-5.840836065465593e-06
-9.137262610173612e-06
-7.2169379687004285e-06
-6.585902700180837e-06
-9.660630887470796e-06
-4.814397499396431e-06
-1.170297552489734e-05
-9.19798420135642e-06
-1.5878741386847997e-05
-9.479521554723495e-06
-1.453049089445e-05
-1.1088181030846617e-05
-1.4716108664187402e-05
-1.0284982133113797e-05
-1.6560123660861276e-05
-6.724066553974779e-06
-1.573383624846546e-05
-2.927917304811923e-06
-1.07810460460472e-05
-4.533843030809058e-06
-1.0164975183449239e-05
-1.1641267408686798e-05
-6.509963419552675e-06
-1.546184764695556e-05
-0.0
0.0
0.0
0.0
0.0
0.0
0.0
0.0
0.0
0.0
0.0
0.0
0.0
0.0
0.0
0.0
0.0
0.0
0.0
0.0
0.0
0.0
0.0
0.0
0.0
0.0
0.0
0.0
0.0
0.0
0.0
0.0
0.0
0.0
0.0
0.0
0.0
0.0
0.0
0.0
0.0
0.0
0.0
0.0
0.0
0.0
0.0
0.0
0.0
0.0
0.0
0.0
0.0
0.0
0.0
0.0
0.0
0.0
0.0
0.0
0.0
0.0
0.0
-0.0
-0.0
2.0745501453101965e-05
1.3267185875849624e-05
1.5719567037584526e-05
2.0180850869618124e-05
1.542426545605307e-05
3.454697795799925e-05
1.5222618502634413e-05
3.7198332208254583e-05
1.3377810509972818e-05
3.410861990775267e-05
9.731512093811592e-06
2.6144227605273478e-05
5.410269289619495e-06
1.8649900628303957e-05
3.461460106122892e-06
1.0250115347864447e-05
4.330529874503011e-07
8.061564150224142e-06
-8.503747888178201e-07
7.947010955532148e-06
-9.806458082308443e-07
5.033534989332396e-06
2.1692526981782118e-06
2.3234066462582593e-06
5.572406761971396e-06
3.435904181332157e-06
5.259352058181187e-06
7.053074547898222e-06
7.086800127398528e-06
8.010546921891274e-06
9.167935569235483e-06
6.712928980412754e-06
9.291223652017302e-06
-1.4895168829145242e-08
5.077342673381999e-06
1.0549505731838225e-06
3.7755227042374973e-06
3.0998307979606537e-06
8.281365537000771e-06
-0.0
-0.0
0.0
0.0
0.0
0.0
0.0
0.0
0.0
0.0
0.0
0.0
0.0
0.0
0.0
0.0
0.0
0.0
0.0
0.0
0.0
0.0
0.0
0.0
0.0
0.0
0.0
0.0
0.0
0.0
0.0
0.0
0.0
0.0
0.0
0.0
0.0
0.0
0.0
0.0
0.0
0.0
0.0
0.0
0.0
0.0
0.0
0.0
0.0
0.0
0.0
0.0
0.0
0.0
0.0
0.0
0.0
0.0
0.0
0.0
0.0
7.036351843270429e-06
5.104611253697395e-06
6.113464838166352e-06
5.28780473769067e-06
6.778601240262313e-06
3.1333885193458257e-06
8.004459017144391e-07
-2.972849941621611e-06
-6.367057375432494e-06
-6.214420681261198e-06
-7.117682675518534e-06
-3.943974198211066e-06
-1.0947831565969702e-05
-5.979910161609788e-06
-1.1514269550716636e-05
-7.55887888767736e-06
-8.967053201489584e-06
-1.1176532673406563e-05
-1.0071861482202712e-05
-1.3496084811940361e-05
-7.392602335879785e-06
-1.3647776270985961e-05
-8.289953699054467e-06
-1.6575573290421147e-05
-9.277562321342095e-06
-1.6980847372135828e-05
-8.422408051481449e-06
-2.007905154557269e-05
-9.987985449118687e-06
-2.276583584009649e-05
-9.390265363885767e-06
-2.0474861850523874e-05
-6.723801587904891e-06
-1.902493476189954e-05
-7.292710316579634e-06
-1.6524252099653656e-05
-1.2221734483589797e-05
-1.2067028105903362e-05
-1.52594153325755e-05
-6.317184407883972e-06
-1.0767473021154291e-05
-5.8518323700588806e-06
-1.8098939391130383e-05
-0.0
0.0
0.0
0.0
0.0
0.0
0.0
0.0
0.0
0.0
0.0
0.0
0.0
0.0
0.0
0.0
0.0
0.0
0.0
0.0
0.0
0.0
0.0
0.0
0.0
0.0
0.0
0.0
0.0
0.0
0.0
0.0
0.0
0.0
0.0
0.0
0.0
0.0
0.0
0.0
0.0
0.0
0.0
0.0
0.0
0.0
0.0
0.0
0.0
0.0
0.0
0.0
0.0
0.0
0.0
-0.0
-0.0
2.2561333082004252e-05
7.585371435014841e-06
2.3378265879607595e-05
1.1322696875820499e-05
2.970228657261376e-05
1.8327854169249233e-05
2.6493766534957546e-05
2.495637468642669e-05
2.19752271789813e-05
3.3173709118029645e-05
1.790630357639426e-05
3.612122783448531e-05
1.3008271695885096e-05
3.218327130946626e-05
6.922619200112957e-06
3.0513523366481203e-05
3.773819405060324e-06
2.1959565988943905e-05
1.725855437404642e-06
1.4866343520671857e-05
-1.1375399623037734e-06
8.71761877435474e-06
-2.662345468064637e-06
2.848792943350878e-06
1.1399338235511259e-06
3.824706886253047e-06
1.1867332189028202e-06
-6.372812411559769e-07
2.8831410312298507e-06
-4.262550800477738e-07
5.039696777753639e-06
1.6591025245119077e-06
7.852633819809673e-06
7.3026016764729535e-06
6.527833545853835e-06
4.573342053498501e-06
7.31431211305943e-06
1.5670898979947795e-06
4.604561251788164e-06
4.0793055503452405e-06
-1.447003257598747e-06
2.59985905410246e-06
-9.324250903202345e-07
8.170528778024472e-07
-6.3094468386684165e-06
-3.388136085292167e-07
-1.059162609027035e-05
-0.0
-0.0
0.0
0.0
0.0
0.0
0.0
0.0
0.0
0.0
0.0
0.0
0.0
0.0
0.0
0.0
0.0
0.0
0.0
0.0
0.0
0.0
0.0
0.0
0.0
0.0
0.0
0.0
0.0
0.0
0.0
0.0
0.0
0.0
0.0
0.0
0.0
0.0
0.0
0.0
0.0
0.0
0.0
0.0
0.0
0.0
0.0
0.0
0.0
0.0
0.0
0.0
0.0
9.558064622694901e-06
5.889879871952513e-06
5.903111706541459e-06
7.415407448015869e-06
6.1183480064584865e-06
7.840287573713555e-06
7.25703130240715e-06
9.151823486810898e-06
8.07216300851319e-06
8.68667329907956e-06
3.8781245473813965e-06
2.5355893582945e-06
-6.572200685045194e-06
-1.405984741979695e-06
-6.977323467344929e-06
-2.0541201387446685e-06
-8.690000379723555e-06
-3.122546988769094e-06
-1.2774518542784022e-05
-7.946647008967251e-06
-8.770848421127948e-06
-1.1778573568307478e-05
-6.370826603989301e-06
-1.0671466850420798e-05
-1.254354124298e-06
-1.1130321451982559e-05
6.508021777346545e-07
-1.6239304028680105e-05
-1.3891877663695627e-06
-1.970605727860237e-05
1.1672736112819158e-06
-1.8849686712113204e-05
-2.5887029769273885e-06
-2.168233699103798e-05
-2.6624021046684963e-06
-2.052226149212343e-05
-1.3790464597454563e-06
-2.063350903555311e-05
-5.293562473747035e-06
-1.8551945369182574e-05
-1.0972726402395614e-05
-1.1827441181597958e-05
-1.5427069971782376e-05
-6.000102335595635e-06
-1.5817433820772814e-05
-4.972740747425026e-06
-1.5209737469838816e-05
-3.99145058178375e-06
-8.273162021206461e-06
-2.317199266532038e-06
-1.571856439066262e-05
-0.0
0.0
0.0
0.0
0.0
0.0
0.0
0.0
0.0
0.0
0.0
0.0
0.0
0.0
0.0
0.0
0.0
0.0
0.0
0.0
0.0
0.0
0.0
0.0
0.0
0.0
0.0
0.0
0.0
0.0
0.0
0.0
0.0
0.0
0.0
0.0
0.0
0.0
0.0
0.0
0.0
0.0
0.0
0.0
0.0
0.0
0.0
0.0
-0.0
1.685768815856572e-05
3.2408423104716363e-06
1.6645045192078396e-05
4.734785131282812e-06
2.230028962804572e-05
9.716129157769245e-06
2.7403025163617536e-05
1.459310009655655e-05
3.394672587574999e-05
2.200370138263059e-05
3.171435882213356e-05
2.4084815903377543e-05
2.3737206130642767e-05
2.8263142688821025e-05
1.423566931058159e-05
2.768028401792715e-05
7.575622547622188e-06
2.7153290487865247e-05
2.3240064967923137e-06
2.2266515347001113e-05
-1.6774732002514106e-06
1.7445527307167152e-05
-6.140292322783124e-06
1.0844334672452047e-05
-5.538561320538685e-06
4.540712598603513e-06
-3.565178229966763e-06
-1.9097181975017621e-07
-3.1906906129699337e-06
2.0990978240070703e-06
1.9597538491499808e-06
8.098336988962784e-07
3.4849650452138024e-06
-1.3014798342554428e-06
6.084930151501039e-06
4.226041361472941e-06
7.461391489919228e-06
5.649428480946505e-06
1.0914535893101183e-05
4.843775473624099e-06
8.514554396812795e-06
5.013989246436897e-06
1.467251177912178e-06
4.006766790770075e-06
-3.737647601986428e-06
1.0636182468004188e-06
-7.147658975186931e-06
-1.5892927726447437e-06
-9.075147110775117e-06
-1.4637512985715448e-06
-1.3234477045883824e-05
-2.6026630987272327e-06
-1.8162573424696188e-05
-3.4301586976451263e-06
-3.350618203142839e-05
-0.0
0.0
0.0
0.0
0.0
0.0
0.0
0.0
0.0
0.0
0.0
0.0
0.0
0.0
0.0
0.0
0.0
0.0
0.0
0.0
0.0
0.0
0.0
0.0
0.0
0.0
0.0
0.0
0.0
0.0
0.0
0.0
0.0
0.0
0.0
0.0
0.0
0.0
0.0
0.0
0.0
0.0
0.0
0.0
0.0
0.0
1.2369482880784209e-06
5.452646189804919e-06
-1.3809338698765788e-07
1.1741966595645646e-05
3.372129334926082e-06
1.1443566939742672e-05
6.671609385570649e-06
8.364841227304367e-06
8.520111478084837e-06
8.862420183748744e-06
1.1817419898307988e-05
6.874064982230026e-06
1.1505147815979533e-05
1.6450141573675697e-06
8.85019139882247e-06
-6.269805740198578e-06
2.0149620792455336e-06
-7.799657088638811e-06
3.629637833142463e-07
-1.0478198453939822e-05
-1.6231305386477102e-07
-9.915325428509424e-06
-5.065904623258462e-06
-6.088207650195206e-06
-1.079274219571641e-05
-1.3410758303711516e-06
-8.916521949183477e-06
3.2847975455071895e-06
-1.0142387700263378e-05
3.980380898840994e-06
-1.696114442510933e-05
5.707374370798675e-06
-1.9070874300934546e-05
6.614603276738251e-06
-1.8623929702069017e-05
6.066388477243413e-06
-2.0822477206806797e-05
3.883613346771969e-06
-1.6813543975759338e-05
1.9380914454271527e-06
-1.7208977173726747e-05
-1.9750190892370386e-06
-1.9408799764737337e-05
-8.428293492171233e-06
-1.6951432138043364e-05
-1.1544616599890063e-05
-6.874248467027015e-06
-1.4959132427295285e-05
-6.6848805009272065e-06
-1.1340425178116611e-05
-6.993923792405544e-06
-7.94269963420026e-06
-6.7096983551548075e-06
-9.624064439418048e-06
-1.2144785169170714e-05
-7.547470161500071e-06
-1.7286348848540034e-05
0.0
0.0
0.0
0.0
0.0
0.0
0.0
0.0
0.0
0.0
0.0
0.0
0.0
0.0
0.0
0.0
0.0
0.0
0.0
0.0
0.0
0.0
0.0
0.0
0.0
0.0
0.0
0.0
0.0
0.0
0.0
0.0
0.0
0.0
0.0
0.0
0.0
0.0
0.0
0.0
0.0
0.0
0.0
5.816993011346939e-06
-3.955383492538422e-07
3.8044121085945572e-06
7.959707777316649e-06
6.68206531161958e-06
1.5550648009527743e-05
1.6973336064523835e-06
2.1539652273400086e-05
5.013676891629885e-06
2.6146322889953317e-05
1.1860455610424803e-05
3.164591107628734e-05
1.9455175911179228e-05
3.230432724625402e-05
1.845687716860211e-05
2.649722273700299e-05
2.00650705735533e-05
1.5420679465857698e-05
2.09606724839653e-05
6.584582814101319e-06
1.763655139108123e-05
-1.3637639446591016e-06
1.442655494109684e-05
-5.8830715804461436e-06
6.964486138441409e-06
-8.135100866508408e-06
7.0745187446820945e-06
-1.1003732400054305e-05
7.565222419869898e-06
-1.177921230152788e-05
3.428500222283717e-06
-8.853080485779276e-06
3.21243882071233e-06
-4.372702000223919e-06
4.964193148033744e-07
-8.43085272802537e-07
-5.751598738858233e-07
3.429528461967515e-06
3.587996996624383e-07
5.060352116028867e-06
1.6672238936001905e-06
6.1423164848606716e-06
3.7902144901741724e-06
6.31566429051851e-06
2.745940918884928e-06
3.7436275050728188e-06
3.19049467459615e-06
-4.177462318726705e-06
2.9886129770832364e-07
-6.673524747637886e-06
4.6911196682228617e-07
-1.2204427286416014e-05
-5.886528793602606e-06
-1.9322192842114353e-05
-6.86044461527888e-06
-2.4525571880095647e-05
-3.6398804086931276e-06
-3.5102087355498476e-05
-3.937685043926046e-06
-3.775041786495841e-05
0.0
0.0
0.0
0.0
0.0
0.0
0.0
0.0
0.0
0.0
0.0
0.0
0.0
0.0
0.0
0.0
0.0
0.0
0.0
0.0
0.0
0.0
0.0
0.0
0.0
0.0
0.0
0.0
0.0
0.0
0.0
0.0
0.0
0.0
0.0
0.0
0.0
0.0
0.0
0.0
0.0
1.3465454581549741e-05
-3.547462590006311e-06
1.1596022617884942e-05
-1.5568461763098235e-06
1.3349699965739703e-05
-4.4318063231316035e-07
1.2991822555996213e-05
2.4573967565365815e-06
1.1993866316246087e-05
7.153187604958109e-06
7.298720960462342e-06
9.037614726662074e-06
7.526141293474614e-06
1.2244105645246593e-05
8.835704218228445e-06
1.635411645197419e-05
1.5916983399898153e-06
1.3630614135745982e-05
-3.8200852663476695e-06
7.171512987315457e-06
-5.3291652453139635e-06
2.574692921858582e-06
-6.87825497966093e-06
1.7570650448164262e-06
-2.46563731496886e-06
3.5580521013987387e-06
1.0211344023635174e-06
-6.109056689382138e-07
2.7684861377540946e-06
-2.488529726422158e-06
7.3370548056997685e-06
-5.16539078268274e-06
1.2732787157235514e-05
-1.121721855104575e-05
1.2546728610774479e-05
-1.2414947039391988e-05
1.0607214363140716e-05
-1.0470260962167738e-05
1.3597830428634295e-05
-1.3012752371073903e-05
1.2326019235990481e-05
-1.5747012272904976e-05
6.30342237582397e-06
-1.5292423609640802e-05
3.505306068767969e-06
-1.8498289744914664e-05
-1.9274306040737927e-06
-1.5552999134197702e-05
-4.117280484431421e-06
-1.3187397571329498e-05
-5.063167803951215e-06
-1.1345696391181309e-05
-4.6958296460745975e-06
-1.1389588211403917e-05
-3.981412696463316e-06
-1.1696762294114241e-05
-6.964541733972662e-06
-1.300585804926839e-05
-8.399031179873338e-06
-1.8258000926014786e-05
-9.884622085468049e-06
-1.3875825448028432e-05
-1.8593003523804183e-05
-0.0
0.0
0.0
0.0
0.0
0.0
0.0
0.0
0.0
0.0
0.0
0.0
0.0
0.0
0.0
0.0
0.0
0.0
0.0
0.0
0.0
0.0
0.0
0.0
0.0
0.0
0.0
0.0
0.0
0.0
0.0
0.0
0.0
0.0
0.0
0.0
0.0
0.0
8.883813076032688e-06
-2.738246779558676e-06
1.0313472519158383e-05
6.153474988444384e-07
6.936393146168491e-06
1.0229653780090774e-05
7.728356382065492e-06
1.8931384544397246e-05
7.249677042691345e-06
2.1496622325164206e-05
3.888707848080315e-06
2.533973186342006e-05
9.398274861071065e-06
2.711888547730843e-05
1.23379453850316e-05
2.565233939228848e-05
8.67429272975324e-06
2.308291127111913e-05
8.198201460975237e-06
1.3983086690669695e-05
9.469568343867623e-06
3.718625599495407e-06
1.1812746819960809e-05
-5.393840684288881e-06
9.895244792252572e-06
-1.0302185687331978e-05
6.61894114977855e-06
-1.7756607572901167e-05
3.530928084549247e-06
-1.9298716565173955e-05
3.2342592518624856e-06
-1.998709369526377e-05
-7.733329582699114e-08
-1.4133370200628526e-05
-3.960191905719174e-06
-8.34644142965596e-06
-1.3017713185508839e-06
-6.59533355233834e-06
-2.3417108576315468e-06
-1.5957085737763348e-06
-8.478982859427264e-07
5.8448687572229154e-08
1.8746783927371305e-07
2.2327629277509162e-06
2.923054226598411e-06
4.755674832460135e-06
5.080921178959972e-06
4.068562488186395e-06
5.83151930994476e-06
-1.928883235754582e-06
3.3930966578723595e-06
-8.697877070703438e-06
-4.29138880456766e-06
-1.4969350550569133e-05
-7.881901944459662e-06
-2.3330470682831522e-05
-5.902737879007026e-06
-2.7706804849864912e-05
-5.10243442236789e-06
-3.292167630726587e-05
-5.50202181997603e-06
-2.8609136612073335e-05
-1.3549406807327154e-05
-1.294922722039483e-05
-2.2214470195671292e-05
0.0
0.0
0.0
0.0
0.0
0.0
0.0
0.0
0.0
0.0
0.0
0.0
0.0
0.0
0.0
0.0
0.0
0.0
0.0
0.0
0.0
0.0
0.0
0.0
0.0
0.0
0.0
0.0
0.0
0.0
0.0
0.0
0.0
0.0
0.0
0.0
7.606684976473655e-06
-6.19584466388497e-06
1.0465716314714162e-05
-3.855198191339004e-06
1.3396325324103533e-05
7.37089808366111e-07
1.3081854925157603e-05
-1.1971153282074003e-06
1.134697893879138e-05
1.607312125287382e-06
9.169546395571944e-06
5.611546382873999e-06
7.052378643424842e-06
1.256656121367034e-05
5.816880427493248e-06
1.4190760616524822e-05
4.709616415507739e-06
1.5766384220043406e-05
-1.3433634798190858e-06
1.2783629476601492e-05
-6.9103179303228095e-06
6.695420236308472e-06
-4.45348766814833e-06
4.287853343057622e-06
-4.262244716104983e-06
5.103545966358433e-06
1.4197134573487645e-06
7.5760193094206345e-06
6.6231164416122794e-06
2.73411713643348e-06
8.152369919986074e-06
1.218067529087815e-06
9.647056960681115e-06
1.399018255278028e-06
1.217146129122732e-05
-7.93135282502015e-06
1.1366517073604646e-05
-8.103396441109395e-06
1.1337286422874572e-05
-7.578666623014879e-06
1.2778454209434865e-05
-1.3285585476280147e-05
1.1320505934248335e-05
-1.3829835562183063e-05
1.3487283704413543e-05
-1.3759113993107424e-05
8.37039815846178e-06
-1.6061793859339374e-05
4.212987403156462e-06
-1.5428207589554604e-05
4.872184289639556e-06
-1.4718689236137507e-05
4.584959531061368e-06
-1.3346500958022666e-05
-4.054885721194611e-08
-1.3026484064500728e-05
-2.8819498114655143e-06
-1.2629528223891975e-05
-6.226443350066342e-06
-1.8864467112379837e-05
-7.7528450071319e-06
-1.9030208961834675e-05
-8.269471940152963e-06
-1.5189022719878104e-05
-1.6073590609323072e-05
-7.659356082958564e-06
-1.4884432012728842e-05
-0.0
0.0
0.0
0.0
0.0
0.0
0.0
0.0
0.0
0.0
0.0
0.0
0.0
0.0
0.0
0.0
0.0
0.0
0.0
0.0
0.0
0.0
0.0
0.0
0.0
0.0
0.0
0.0
0.0
0.0
0.0
0.0
0.0
0.0
1.2712970243325137e-05
-2.4063669351361546e-06
1.258398479127434e-05
-3.0919261388950637e-06
1.1841336744005116e-05
2.297268856943912e-06
1.1845669519904984e-05
9.383741713508344e-06
1.1009779017571458e-05
1.8841846781393033e-05
7.784595626403327e-06
2.0777674130859006e-05
4.907290013302059e-06
2.1217146425769096e-05
4.40121600907481e-06
2.311602766162189e-05
3.9642594407840846e-06
2.2127031600156906e-05
-4.2159005701970675e-07
1.556301612069754e-05
5.72958461227293e-08
7.1159878037743745e-06
5.9763799704599195e-06
-1.4147977769123656e-06
6.540054524022833e-06
-1.1784218111405887e-05
5.3234173024446135e-06
-2.0735825171272153e-05
-1.3487282145108885e-06
-2.1913324752548673e-05
8.151379992310302e-07
-2.052644930917474e-05
-1.5209699492427525e-06
-2.1435252341875003e-05
-3.7015787292813857e-06
-1.7204184691659383e-05
-5.55509754463538e-06
-1.449989242802088e-05
-3.7435245688366958e-06
-1.3605963466163992e-05
-3.4321940311760477e-06
-9.236588709981776e-06
-2.9520661145750627e-06
-3.933006525341743e-06
4.669621692038254e-07
-3.1176503864227152e-06
2.484240002938011e-06
7.98106968829905e-07
3.883205271537144e-06
3.4673442259408923e-06
6.163087358599932e-06
-1.8408362275442697e-06
4.669836578934657e-06
-5.073886655069335e-06
3.116522530168845e-07
-1.2664350750460839e-05
-4.359430256246017e-06
-1.9774693500630336e-05
-8.28804088555104e-06
-2.3414570098374914e-05
-9.393584853543736e-06
-2.8451024034980883e-05
-1.11423088318595e-05
-2.8117045882369517e-05
-1.4473257010326009e-05
-1.927600655975685e-05
-2.568935198811998e-05
-9.53394775618742e-06
-2.6747146027179857e-05
-0.0
0.0
0.0
0.0
0.0
0.0
0.0
0.0
0.0
0.0
0.0
0.0
0.0
0.0
0.0
0.0
0.0
0.0
0.0
0.0
0.0
0.0
0.0
0.0
0.0
0.0
0.0
0.0
0.0
0.0
0.0
0.0
2.8516895738659614e-08
-3.714463063327408e-06
7.46246057627083e-06
-7.814189399219193e-06
9.743634356455805e-06
2.2575646324859479e-07
1.1112541844950867e-05
1.0625329479926802e-06
1.2564859393456697e-05
-5.208283701603446e-07
1.1124580964520634e-05
-2.84649565195195e-06
5.87323139449742e-06
4.455021114992848e-06
2.9453513217687003e-06
5.313068022538504e-06
2.703006121617428e-06
1.5224748272229867e-05
-1.9662346984258693e-06
1.3549756428099789e-05
-3.832078864933587e-06
9.874197121898496e-06
-5.814159553518961e-06
1.0332118589008104e-05
-3.959784412349142e-06
7.978054470008967e-06
-1.4206508475266695e-07
7.4873017628678426e-06
2.3372037214577113e-06
6.060419320196364e-06
5.372329834315486e-06
5.265135785352853e-06
6.326708428135984e-06
5.00189712936929e-06
9.567132945938855e-06
1.224491546248973e-06
1.1078159155891902e-05
-2.8593129502443483e-06
9.863805453468112e-06
-4.173989546949388e-06
1.1493031417090253e-05
-3.6802363202990195e-06
1.356275450973846e-05
-9.726330433396694e-06
1.249624733228477e-05
-9.48974921817309e-06
1.3366524728865e-05
-9.334793347443262e-06
8.52556736599285e-06
-1.4853322681501616e-05
6.328396550781591e-06
-1.6502565521766157e-05
6.943548572200371e-06
-1.6718637349295866e-05
6.336197352925237e-06
-1.4859164464703893e-05
3.200721027087705e-06
-1.7623420283717947e-05
4.596238550272286e-07
-2.2041048014321727e-05
-3.3950196944592098e-06
-2.1919831949102553e-05
-6.4887045701236106e-06
-2.2528679127788336e-05
-7.602083773268957e-06
-2.0124043211420413e-05
-1.116781163869208e-05
-1.4385619621449132e-05
-9.65847218887141e-06
-7.825829752715054e-06
-2.453313577738789e-06
-0.0
0.0
0.0
0.0
0.0
0.0
0.0
0.0
0.0
0.0
0.0
0.0
0.0
0.0
0.0
0.0
0.0
0.0
0.0
0.0
0.0
0.0
0.0
0.0
0.0
0.0
0.0
0.0
0.0
0.0
9.1441834650613e-06
-3.989807014603156e-06
1.0428699700833224e-05
-5.744135817576506e-06
8.093372745122752e-06
5.816971291619155e-07
7.981205189533738e-06
1.6708339175548289e-06
9.135690195013877e-06
9.162935395497663e-06
1.194650886339628e-05
1.2416374686125272e-05
8.591308738760597e-06
1.3623608761497158e-05
2.109179337132732e-06
1.8945802206437057e-05
3.8096551744287168e-06
2.009788344956195e-05
-1.2488821706098313e-06
1.7502852177405762e-05
-4.270732510575167e-06
1.0380092986682247e-05
-7.334393519152674e-06
1.6442641620648197e-06
-5.898469182495551e-06
-6.873223848534628e-06
-8.918124498951683e-07
-1.5975752700052408e-05
-4.6088433297473727e-07
-2.3016267649095752e-05
-4.764644057587512e-06
-2.5188568544845938e-05
-7.278207378442312e-06
-2.3333842608627652e-05
-5.227502315161125e-06
-2.069857911505402e-05
-4.6837613115289e-06
-1.988444938397882e-05
-5.259509773506981e-06
-1.896956914562777e-05
-2.2543760863401407e-06
-1.6646720309237694e-05
-9.82120851539593e-07
-1.2523127549279986e-05
1.1848414517993524e-06
-8.448038587108458e-06
3.444170594812799e-06
-6.56534412537836e-06
5.145354429562824e-06
-1.1093418725639757e-06
1.08883127459951e-05
-3.588148750851211e-07
5.7408164459867294e-06
-3.654305044212084e-06
1.141966996917871e-06
-3.8086714267393233e-06
-9.1486609352956e-07
-6.367618515003204e-06
-6.081468940342333e-06
-1.40873670675169e-05
-8.95699804850204e-06
-2.0144862909465493e-05
-6.77080509534644e-06
-2.619034769057304e-05
-7.982881607288182e-06
-2.8513275930045915e-05
-1.4662072945632922e-05
-2.5276118611602544e-05
-1.9576483670473573e-05
-2.027208814339852e-05
-2.487667372024342e-05
-1.1750683207774976e-05
-2.2474463819628374e-05
-0.0
0.0
0.0
0.0
0.0
0.0
0.0
0.0
0.0
0.0
0.0
0.0
0.0
0.0
0.0
0.0
0.0
0.0
0.0
0.0
0.0
0.0
0.0
0.0
0.0
0.0
0.0
0.0
4.547431955801546e-06
2.2211829108533354e-06
6.091678111239571e-06
-1.567593355175072e-06
8.35896452871787e-06
-3.9483971882644543e-07
6.371807612509326e-06
9.667803635364965e-07
6.9128706985773e-06
9.092659587628589e-07
7.463981804793834e-06
-5.715892573030969e-06
6.020554283080109e-06
-4.9653330816120005e-06
5.930497247742221e-07
5.49889292595392e-06
-8.122102636629347e-07
7.943092333148444e-06
-2.480002801784468e-06
8.898422483145389e-06
-3.6712198006844703e-06
1.116982704600829e-05
-4.083745612327013e-06
1.5768702091104762e-05
-5.092299298346364e-06
1.3910853660538162e-05
-1.9925975260753913e-06
1.1719529895516376e-05
-9.188630978519734e-07
9.350366968310897e-06
1.177664974314426e-06
7.268627157717303e-06
3.2642914097059934e-06
6.070045350534752e-06
3.848493252635014e-06
5.305160957435833e-06
5.83064099253819e-06
2.421324234595437e-06
5.3635441385324926e-06
-2.28753896165132e-06
2.815614132625383e-06
-6.332430088661565e-07
4.173539429517778e-06
-5.576579134361713e-07
8.583738958519742e-06
-4.428079308615372e-06
6.651851974031759e-06
-6.12222153587135e-06
7.362414672397395e-06
-1.163381878654924e-05
7.325203643773229e-06
-1.7046957947643934e-05
2.3361215412676112e-06
-2.045332778915985e-05
1.8870122478156882e-06
-2.0728938805467575e-05
6.5044308985766575e-06
-1.7619588160945273e-05
5.36780756626738e-06
-2.002811901485634e-05
2.0066997750949023e-06
-2.6133924214963873e-05
1.1758343999435974e-06
-2.9580852904670766e-05
-4.343908258838916e-06
-2.867958680908948e-05
-4.760007301269988e-06
-2.9730452484845702e-05
-6.433867460124026e-06
-2.3783483035568774e-05
-3.2388491203717912e-06
-1.2448500094991075e-05
-3.934289210482942e-07
-7.461054799490848e-06
1.7676761505212532e-06
-0.0
0.0
0.0
0.0
0.0
0.0
0.0
0.0
0.0
0.0
0.0
0.0
0.0
0.0
0.0
0.0
0.0
0.0
0.0
0.0
0.0
0.0
0.0
0.0
0.0
0.0
1.093702827540806e-06
5.510551953773236e-07
4.104236199462773e-06
-4.5566741211159e-06
8.727521936700536e-06
-4.610795501416912e-06
5.524379840129391e-06
1.3631668205413329e-06
3.897047662848954e-06
3.2202985941960306e-06
7.311807978184079e-06
6.599629561407324e-06
1.149924299742057e-05
1.182572832173307e-05
7.9657340653524e-06
1.3788835335054677e-05
4.0738367619290195e-06
1.2679250832654315e-05
-2.5970062351627423e-06
1.297825717524866e-05
-7.946550872908367e-06
1.206171527067312e-05
-8.883465121056256e-06
5.1964435374980645e-06
-9.327725481326759e-06
-5.092337113744661e-06
-1.3119045610556282e-05
-9.56196484320003e-06
-9.654691903931165e-06
-1.4646541202012924e-05
-8.73475045395217e-06
-2.357108728855449e-05
-1.3073261826699205e-05
-2.3436472451593778e-05
-9.448581811181704e-06
-2.4477960114086e-05
-5.370730971751636e-06
-2.0193923862884562e-05
-6.8674765867514515e-06
-1.7769588411027492e-05
-4.909441738322525e-06
-1.906362450517113e-05
-1.117397078885914e-06
-1.814749786215759e-05
4.179028212165432e-06
-1.4940052881907e-05
2.0528083110283017e-06
-1.1589926204750112e-05
4.664469045471607e-06
-8.632483733390717e-06
8.160258247925411e-06
-6.110635203567814e-06
7.2559462959469136e-06
-5.870071203148879e-06
4.1937848282408885e-06
-8.953377458808896e-06
3.1415991784741397e-07
-6.418702741197934e-06
3.872342651714817e-06
-5.820556971317159e-06
1.2056839803578157e-07
-9.640147214881152e-06
-3.8999133313436615e-06
-1.6463108108321226e-05
-2.6147524118399198e-06
-2.118858843419772e-05
-6.091517529292848e-06
-2.413190125349722e-05
-8.704599678465376e-06
-2.4642975491504474e-05
-1.5879276473998424e-05
-2.2161346644748577e-05
-1.7779795413920788e-05
-1.5309160597352483e-05
-1.7765493183506363e-05
-4.223729242213119e-06
-1.780882677301192e-05
-0.0
0.0
0.0
0.0
0.0
0.0
0.0
0.0
0.0
0.0
0.0
0.0
0.0
0.0
0.0
0.0
0.0
0.0
0.0
0.0
0.0
0.0
0.0
0.0
5.545406550348854e-06
2.041869139893764e-06
2.1065165967391355e-06
1.6249485887013485e-06
4.575624395128797e-06
2.3414229521786456e-06
1.0059806511319136e-05
3.7623425799394975e-06
6.92154745202252e-06
1.3829524313086887e-06
4.520408270419362e-06
-2.605296093172987e-06
6.251265509689156e-06
-2.7062584503774333e-06
3.1454651940502116e-06
-2.5614402166369234e-06
1.0604480185935555e-06
4.9435983613361805e-06
-1.7484922164893307e-06
5.44595611927121e-06
-3.978194543567878e-06
1.0088936583038798e-05
-2.3654121220379077e-06
1.2273192680546554e-05
-1.1058132039618667e-06
1.425767358707675e-05
-6.4250998548663066e-06
1.6731790161647043e-05
-4.900173243958429e-07
1.1608865331040604e-05
2.4894507060134625e-06
8.969504230348049e-06
1.382934671132432e-06
7.660071064274743e-06
8.324660285553739e-07
5.216082383180412e-06
8.649682781123293e-07
3.3829676565714593e-06
-3.199576031102634e-07
1.0476277225536234e-06
-1.5067101411766853e-06
-3.730665185282717e-06
-3.957270962645778e-06
-5.115719292387036e-06
-2.798047900003449e-06
-2.669503111782023e-07
2.3337450902683994e-06
-4.197762298878241e-06
1.16798691130966e-06
-8.703823534584444e-06
3.5480753663940352e-06
-7.491525330806715e-06
3.7662314474129373e-06
-1.4733689975266166e-05
2.335745359925988e-06
-1.8423410599962247e-05
2.5174694939191076e-06
-2.0798960692973293e-05
5.2639971617806595e-06
-2.0425413910581894e-05
5.0304552784415135e-06
-2.1724803484486218e-05
6.7483348395695425e-06
-2.9140491570337247e-05
4.659464444371408e-06
-3.184039457547918e-05
-2.7503049674441117e-06
-3.287123412006357e-05
-1.5030387375263408e-06
-3.4417540642372755e-05
-2.9949325130206917e-06
-2.6083784690275784e-05
-6.004165507460476e-07
-1.9944180293101125e-05
-1.6717072110565918e-06
-1.4344064098921548e-05
-1.6603644180420365e-06
-5.384270425496998e-06
-2.2642866019608963e-06
-0.0
0.0
0.0
0.0
0.0
0.0
0.0
0.0
0.0
0.0
0.0
0.0
0.0
0.0
0.0
0.0
0.0
0.0
0.0
0.0
0.0
0.0
-8.958323901902686e-07
6.312678415789504e-06
8.147709063784276e-07
3.6276026830361292e-06
3.399481300203004e-06
-3.102486842507295e-06
6.9447802775325215e-06
4.7675146808702613e-07
3.8591628609519e-06
1.890442571172886e-06
5.709830596729992e-06
6.83035302258655e-06
1.0376060034352157e-05
1.3264166065965255e-05
1.1219531473488429e-05
1.5388214848111777e-05
5.821364885970615e-06
1.5192855190422293e-05
-3.8086520243570465e-06
1.1648675635543229e-05
-6.590853028732587e-06
8.753494504550574e-06
-1.453389280930499e-05
5.239725607920837e-06
-1.494028228122434e-05
3.7379025868275546e-07
-1.615283604980475e-05
-7.091924895889697e-06
-1.6089495793854554e-05
-1.2375219807744532e-05
-1.2580149809583817e-05
-1.576378678891242e-05
-1.0473304528745976e-05
-2.2881818982707345e-05
-1.2837093321517666e-05
-2.5292763166618487e-05
-1.012807284572083e-05
-2.180389888195727e-05
-3.5552426059849974e-06
-1.8423400814587845e-05
-7.337357425176564e-06
-1.3196219142505978e-05
-7.328291712512073e-06
-1.1646010493354119e-05
-3.103707187403298e-06
-1.271030606654118e-05
-4.624267411680046e-07
-1.1912932190556582e-05
-1.264237970712167e-06
-1.0804256130771457e-05
3.2788346932101643e-06
-9.50944695077236e-06
4.359095062654789e-06
-7.515721486208263e-06
9.052256309194256e-06
-4.372397438761338e-06