# vtk DataFile Version 2.0
Acoustic field
ASCII
DATASET STRUCTURED_POINTS
DIMENSIONS 102 102 1
ORIGIN -0.01 -0.01 0
SPACING 0.0002 0.0002 1
POINT_DATA 10404
SCALARS pressure float 1
LOOKUP_TABLE default
0.0
0.0
0.0
0.0
0.0
0.0
0.0
0.0
0.0
0.0
0.0
0.0
0.0
0.0
0.0
0.0
0.0
0.0
0.0
0.0
0.0
0.0
0.0
0.0
0.0
0.0
0.0
0.0
0.0
0.0
0.0
0.0
0.0
0.0
0.0
0.0
0.0
0.0
0.0
0.0
0.0
0.0
-0.0
0.0
-0.0
0.0
-0.0
0.0
-0.0
0.0
-2.3968315795531457e-05
0.0
-0.0
0.0
-0.0
0.0
-0.0
0.0
-0.0
0.0
0.0
0.0
0.0
0.0
0.0
0.0
0.0
0.0
0.0
0.0
0.0
0.0
0.0
0.0
0.0
0.0
0.0
0.0
0.0
0.0
0.0
0.0
0.0
0.0
0.0
0.0
0.0
0.0
0.0
0.0
0.0
0.0
0.0
0.0
0.0
0.0
0.0
0.0
0.0
0.0
0.0
0.0
0.0
0.0
0.0
0.0
0.0
0.0
0.0
0.0
0.0
0.0
0.0
0.0
0.0
0.0
0.0
0.0
0.0
0.0
0.0
0.0
0.0
0.0
0.0
0.0
0.0
0.0
0.0
0.0
0.0
0.0
0.0
0.0
0.0
0.0
0.0
0.0
-0.0
0.0
-0.0
0.0
-0.0
-7.347861356183289e-06
-1.1109261071799553e-05
-2.6646680216993803e-06
-1.4123548226891632e-05
-3.102761112833658e-06
-1.1695916637396306e-05
-2.9359629952521177e-06
-1.6701321358488592e-05
-3.5064233558549016e-07
-1.5651475651783636e-05
-2.993578236248887e-06
-1.6361156401163452e-05
-5.052839478707469e-07
-1.3047285397275654e-05
-8.068820156050901e-07
-1.2872142414379887e-05
-3.0956719655899374e-06
-2.9367275005982217e-06
-3.4031339039709775e-06
0.0
0.0
0.0
-0.0
0.0
0.0
0.0
0.0
0.0
0.0
0.0
0.0
0.0
0.0
0.0
0.0
0.0
0.0
0.0
0.0
0.0
0.0
0.0
0.0
0.0
0.0
0.0
0.0
0.0
0.0
0.0
0.0
0.0
0.0
0.0
0.0
0.0
0.0
0.0
0.0
0.0
0.0
0.0
0.0
0.0
0.0
0.0
0.0
0.0
0.0
0.0
0.0
0.0
0.0
0.0
0.0
0.0
0.0
0.0
0.0
0.0
0.0
0.0
0.0
0.0
0.0
0.0
0.0
0.0
0.0
0.0
0.0
0.0
0.0
0.0
-0.0
-0.0
-0.0
-3.696967721459417e-06
-5.5984400298013735e-06
-4.235644959580225e-06
-1.3586958842799245e-05
-1.6075790210686913e-06
-8.360651285611255e-06
-4.252018416843146e-06
-5.709853218094843e-06
-2.371078172683547e-06
-3.016489204866023e-06
1.3869190936694304e-06
-1.2434128717083516e-07
-9.460517490455124e-06
-2.1201286409092026e-06
-1.6677202633732886e-05
-3.8891790699032846e-06
-1.317620465467417e-05
-5.524201627174859e-06
-1.5344163241824952e-05
-3.0578400068629096e-06
-1.7893276445894974e-05
-3.635902466122408e-06
-2.6363826268502103e-05
-1.7239000452008372e-06
-3.240671891513984e-05
-2.6485566769664654e-07
-2.5953527216231e-05
-7.442069355690323e-06
-0.0
0.0
-0.0
0.0
0.0
0.0
0.0
0.0
0.0
0.0
0.0
0.0
0.0
0.0
0.0
0.0
0.0
0.0
0.0
0.0
0.0
0.0
0.0
0.0
0.0
0.0
0.0
0.0
0.0
0.0
0.0
0.0
0.0
0.0
0.0
0.0
0.0
0.0
0.0
0.0
0.0
0.0
0.0
0.0
0.0
0.0
0.0
0.0
0.0
0.0
0.0
0.0
0.0
0.0
0.0
0.0
0.0
0.0
0.0
0.0
0.0
0.0
0.0
0.0
0.0
0.0
0.0
0.0
0.0
0.0
-0.0
-9.077532624085261e-06
-7.52355671501238e-06
-1.4105042764668288e-05
-3.745373101617539e-06
-6.1727751003157064e-06
-1.7730067685565104e-06
-5.582900533832381e-06
-2.1329011885681304e-06
-9.663078571052143e-06
-1.2030220396061588e-05
-5.142457700435546e-06
-1.6106674396240276e-05
-6.024819734230201e-07
-1.9217850444930762e-05
-5.406360474828948e-06
-2.0428837434913354e-05
-2.465669465963205e-06
-2.258040913220309e-05
1.0277290253341012e-06
-1.7554330134526644e-05
-4.831286417730815e-06
-1.6584287873928562e-05
-3.605408245962391e-06
-8.879438961719207e-06
-2.2601657290346856e-06
-4.129695624044624e-06
-5.538731367508278e-06
1.6159260943688276e-06
-4.218748865781287e-06
6.583095257347348e-06
-2.5154147600128582e-06
5.9808532649788496e-06
-1.316776227061872e-05
4.133052148086295e-06
-1.0645210641201532e-05
0.0
-0.0
0.0
0.0
0.0
0.0
0.0
0.0
0.0
0.0
0.0
0.0
0.0
0.0
0.0
0.0
0.0
0.0
0.0
0.0
0.0
0.0
0.0
0.0
0.0
0.0
0.0
0.0
0.0
0.0
0.0
0.0
0.0
0.0
0.0
0.0
0.0
0.0
0.0
0.0
0.0
0.0
0.0
0.0
0.0
0.0
0.0
0.0
0.0
0.0
0.0
0.0
0.0
0.0
0.0
0.0
0.0
0.0
0.0
0.0
0.0
0.0
0.0
-0.0
-0.0
-1.007660627949105e-06
2.006859794899365e-06
-1.5384539077258561e-06
4.494945981893384e-06
-5.297473380193855e-06
2.9184768126802215e-06
-7.681073092860958e-06
-8.000601638293631e-07
-1.206374622133326e-05
-2.288467317868597e-06
-9.704526880591315e-06
-3.668680845300198e-06
-9.363667851188756e-06
-2.9835672268251346e-06
-1.1018068846399409e-05
-4.470287237363396e-06
-9.545272604570345e-06
-1.227538676453326e-05
-6.508674267841023e-06
-1.91158270373092e-05
-8.915997999860833e-06
-2.6429239588296296e-05
-1.0113638127549397e-05
-3.2773786990819246e-05
-6.113047823220652e-06
-3.248095566749652e-05
-3.0441063888828405e-06
-3.808368630271357e-05
-4.2664196213686044e-06
-3.593374595036771e-05
-4.8922424439064e-06
-3.0554709323883985e-05
-3.0643256135675346e-06
-2.0017781875662825e-05
-2.60150094458616e-06
-2.1106348714383576e-05
-8.275253151176445e-06
-1.6756721952015294e-05
-1.436667824115603e-05
-0.0
0.0
0.0
0.0
0.0
0.0
0.0
0.0
0.0
0.0
0.0
0.0
0.0
0.0
0.0
0.0
0.0
0.0
0.0
0.0
0.0
0.0
0.0
0.0
0.0
0.0
0.0
0.0
0.0
0.0
0.0
0.0
0.0
0.0
0.0
0.0
0.0
0.0
0.0
0.0
0.0
0.0
0.0
0.0
0.0
0.0
0.0
0.0
0.0
0.0
0.0
0.0
0.0
0.0
0.0
0.0
0.0
0.0
0.0
0.0
-0.0
-7.107075097749093e-06
-4.93784978281542e-06
-7.747308906807925e-06
-4.188492945712296e-06
-7.1626706632915666e-06
-6.087635528222897e-06
-5.82128218826342e-06
7.573793554335517e-07
-4.680164950538254e-06
1.4315016901695114e-06
-6.862715749931674e-06
-1.2770115681612952e-06
-3.675155302507922e-06
-6.429554232244902e-06
-4.119280606982336e-06
-9.777247137250512e-06
-4.789074742906888e-06
-1.9564305189290422e-05
-7.034323801319663e-07
-2.4881490706797425e-05
8.374602547992201e-07
-1.540146622425802e-05
-1.0668697975250536e-06
-1.1902612045932652e-05
-3.858899596484035e-06
-1.020832848017275e-05
-4.494050144537358e-06
-7.3188047688299445e-06
-1.1993656100257769e-05
-1.8826322675946197e-06
-1.0472392393171216e-05
4.640890003337028e-06
-9.328194615150063e-06
1.0368829573340943e-05
-1.4008974259417757e-05
1.0929588328702402e-05
-1.4900405879942638e-05
8.331685116770338e-06
-5.1886989088377205e-06
1.0397447717089779e-05
-9.115183771234373e-06
8.839739757774233e-06
-1.555603879838314e-05
0.0
-0.0
0.0
0.0
0.0
0.0
0.0
0.0
0.0
0.0
0.0
0.0
0.0
0.0
0.0
0.0
0.0
0.0
0.0
0.0
0.0
0.0
0.0
0.0
0.0
0.0
0.0
0.0
0.0
0.0
0.0
0.0
0.0
0.0
0.0
0.0
0.0
0.0
0.0
0.0
0.0
0.0
0.0
0.0
0.0
0.0
0.0
0.0
0.0
0.0
0.0
0.0
0.0
0.0
0.0
-0.0
-0.0
6.94558761085705e-06
2.738694617334091e-06
3.5882462112091187e-06
1.5280629849138122e-06
-8.618304143678855e-07
1.51092837344278e-07
-7.136855565125326e-06
3.6958490530787946e-06
-1.0863691310852004e-05
2.8402382849817018e-06
-8.670381946210997e-06
1.445349868592467e-06
-1.1642573037818519e-05
-6.506257872093352e-06
-9.89644929963663e-06
-8.109444934576688e-06
-1.1167414123503447e-05
-1.2244261813957358e-05
-1.20400184025286e-05
-1.7298023715859235e-05
-1.1529290142285876e-05
-1.7866091340845526e-05
-6.859064348410389e-06
-2.4743454060360237e-05
-8.4644101794496e-06
-3.422384245863859e-05
-7.945995545893129e-06
-4.179400895467241e-05
-1.1503878663735244e-06
-4.361756792105414e-05
-1.0279759264297427e-06
-4.1421244540965035e-05
-5.14463883793173e-06
-4.0242258485440726e-05
-1.1291124653402911e-05
-3.7500642959824376e-05
-1.367608877601801e-05
-3.5639713772778637e-05
-9.335658780744035e-06
-3.0434870942065036e-05
-4.151449304823892e-06
-2.2062573356027396e-05
-1.0166418282850448e-05
-1.4032004012491588e-05
-3.7589483399702816e-06
-1.7865087241363343e-05
7.564999807845378e-06
-0.0
0.0
0.0
0.0
0.0
0.0
0.0
0.0
0.0
0.0
0.0
0.0
0.0
0.0
0.0
0.0
0.0
0.0
0.0
0.0
0.0
0.0
0.0
0.0
0.0
0.0
0.0
0.0
0.0
0.0
0.0
0.0
0.0
0.0
0.0
0.0
0.0
0.0
0.0
0.0
0.0
0.0
0.0
0.0
0.0
0.0
0.0
0.0
0.0
0.0
0.0
0.0
-0.0
-1.1526414026927385e-06
-8.366089606510521e-06
-2.2245908989714863e-06
-6.56420641118034e-06
-6.588036279941754e-06
-5.086542571706275e-06
-1.0036866903082233e-05
-8.874040980703338e-06
-7.4655683631669416e-06
-1.0165603211836004e-05
-3.6316707499856435e-06
-4.140177046269427e-06
-4.8657169362923495e-06
-3.410310557081144e-07
-9.855949581698317e-06
-8.566031306993684e-06
-8.749827348925298e-06
-8.82269440410265e-06
-2.748598278115481e-07
-9.682715879816352e-06
-4.3598492721801954e-06
-1.5368384832820754e-05
-8.644529684923942e-07
-1.611430176755285e-05
-1.6641542225956264e-06
-1.487738132040702e-05
-3.1966544102393603e-06
-6.6178514166718315e-06
-4.646055992845281e-06
-3.99669469912971e-06
-2.9345794355515e-06
-3.1707887694846058e-06
-9.059453694196692e-06
2.5999692413756216e-06
-1.453601134830663e-05
1.0034493239540739e-05
-1.5524451811133214e-05
1.3327486447210903e-05
-1.8926969271789493e-05
1.2932770942259509e-05
-2.1901920928595196e-05
1.9144120177118855e-05
-1.851586311311766e-05
1.7744624510164148e-05
-1.761859783926941e-05
1.553960491058677e-05
-1.2088345004018039e-05
9.167869708713423e-06
-4.5450394094378066e-06
-3.6208234958251044e-06
-3.2083936173057684e-07
0.0
-0.0
0.0
0.0
0.0
0.0
0.0
0.0
0.0
0.0
0.0
0.0
0.0
0.0
0.0
0.0
0.0
0.0
0.0
0.0
0.0
0.0
0.0
0.0
0.0
0.0
0.0
0.0
0.0
0.0
0.0
0.0
0.0
0.0
0.0
0.0
0.0
0.0
0.0
0.0
0.0
0.0
0.0
0.0
0.0
0.0
0.0
0.0
-0.0
4.0010554540156685e-06
-6.35817771047396e-06
9.881767004919194e-06
-5.517312233028052e-06
8.85445359410105e-06
-5.11508297799128e-06
2.7264405670227417e-06
-2.306691935478785e-06
-1.329518702636864e-06
-4.14434674711461e-06
-6.283337288513899e-06
-3.5366171143320884e-06
-7.495865249595918e-06
-5.8373357181607204e-06
-1.0064565097758354e-05
-1.7262729581832806e-06
-1.0970981427818944e-05
-5.448986177505586e-06
-1.1567198157654698e-05
-6.317712578227207e-06
-8.059409935823907e-06
-9.755326887658881e-06
-1.2161954689359503e-05
-1.855924749118362e-05
-1.1800940109686496e-05
-2.412453178785907e-05
-9.59686124474743e-06
-3.094984928481157e-05
-9.737281960682277e-06
-3.4917142829428214e-05
-1.1447089695470954e-05
-4.611849702469381e-05
-8.080197554768096e-06
-4.7133041065925756e-05
-4.567185070510763e-06
-4.234989678089415e-05
-1.0202520767228023e-05
-3.9884223485913965e-05
-7.880416653609867e-06
-4.067997006323327e-05
-1.4412507491526986e-05
-4.0983463021295354e-05
-1.3970962598383129e-05
-3.4737762425273756e-05
-9.81128121508557e-06
-2.42179562872076e-05
-7.435024201289107e-06
-1.717719401597758e-05
-3.2081896122539867e-06
-1.7273134794101078e-05
-1.102633506523036e-06
-1.177494752144361e-05
3.0251668856371504e-06
-1.2700008915352294e-05
2.0560312096208103e-05
0.0
0.0
0.0
0.0
0.0
0.0
0.0
0.0
0.0
0.0
0.0
0.0
0.0
0.0
0.0
0.0
0.0
0.0
0.0
0.0
0.0
0.0
0.0
0.0
0.0
0.0
0.0
0.0
0.0
0.0
0.0
0.0
0.0
0.0
0.0
0.0
0.0
0.0
0.0
0.0
0.0
0.0
0.0
0.0
-0.0
0.0
-1.7378996358494172e-05
2.1416876214133246e-06
-1.2521986407271857e-05
2.092058549442478e-06
-1.1976990735560464e-05
4.704580428222957e-06
-9.331316587908027e-06
-1.7044648335957201e-06
-8.087568679950948e-06
-2.6066498943334575e-06
-9.303309637849781e-06
-6.720741749637125e-07
-1.2603308778403548e-05
1.0521919696729963e-06
-1.5287480408748347e-05
-6.734770734608223e-06
-1.191730045946478e-05
-5.085659384130324e-06
-1.023665459541595e-05
-5.8505638581235045e-06
-1.103694751341922e-05
-1.8535896187302243e-06
-1.2229715450576652e-05
-9.179234802353063e-07
-1.4225565768546084e-05
-2.6115084255540395e-06
-1.668267381441012e-05
1.5877087795599084e-07
-8.903126735482092e-06
7.164566071451996e-06
-7.953662061038887e-06
-4.360342069576244e-06
-4.118276647377275e-06
1.7149607092076971e-06
-3.6142008889837274e-06
-2.7247086452330076e-06
4.6939246258652305e-06
-9.893744537123457e-06
1.1571424482492011e-05
-1.031115495500457e-05
1.5666601493397115e-05
-1.7111492855919358e-05
2.1288886009783895e-05
-2.1184406755854102e-05
1.8637794930510517e-05
-2.100540617394213e-05
1.950016994305486e-05
-1.912726993079652e-05
1.819500632473591e-05
-1.6737704419302463e-05
2.0177080969886903e-05
-4.75822356659206e-06
8.342212562445778e-06
-2.989692267728146e-06
7.259171941481722e-06
-7.168809851289609e-06
1.4340451552135994e-05
-0.0
0.0
0.0
0.0
0.0
0.0
0.0
0.0
0.0
0.0
0.0
0.0
0.0
0.0
0.0
0.0
0.0
0.0
0.0
0.0
0.0
0.0
0.0
0.0
0.0
0.0
0.0
0.0
0.0
0.0
0.0
0.0
0.0
0.0
0.0
0.0
0.0
0.0
0.0
0.0
0.0
0.0
-0.0
3.4879773959493053e-07
-2.1543235000334747e-06
-2.489210449649274e-06
1.1520202147166758e-06
-6.964727907047139e-06
1.0763214767647382e-05
-8.012277363324866e-06
1.0356644040703908e-05
-9.337212540633956e-06
-1.1177141065529773e-07
-8.230124195653506e-06
-4.537770155292883e-06
-8.941166238284141e-06
-7.655035918213703e-06
-8.523153237121283e-06
-4.8679114843508954e-06
-1.2963900904506043e-05
-5.258564542879207e-06
-1.1301912592473514e-05
-5.070442207588256e-06
-2.37345950763591e-06
-5.8960839657811485e-06
-9.095457120979031e-06
-4.6284267282508446e-06
-1.2965002268777096e-05
-5.083943661589787e-06
-1.2197844635663552e-05
-6.851349699901304e-06
-1.858036522586939e-05
-8.622868907638091e-06
-2.7986780327941426e-05
-1.0997492755152355e-05
-3.376719874696092e-05
-1.4574485424726477e-05
-4.0175226419514235e-05
-1.4134821659278045e-05
-4.760290532189603e-05
-1.2790714409649547e-05
-4.2875434600013826e-05
-1.1797491176820126e-05
-4.958116292683686e-05
-1.2994775351757724e-05
-4.776675140498451e-05
-1.1732184533741019e-05
-4.011058653670123e-05
-1.48209855497908e-05
-3.275246717669841e-05
-1.1008427824124868e-05
-2.389711939864878e-05
-7.865625593530108e-06
-1.9943190888447832e-05
-8.191946335635404e-06
-2.49267806191447e-05
-6.173469166778091e-06
-2.070167302891094e-05
3.0309510043327806e-06
-1.575698725170534e-05
1.8327992915220607e-05
-7.157555710963111e-06
2.7632433497355236e-05
0.0
0.0
0.0
0.0
0.0
0.0
0.0
0.0
0.0
0.0
0.0
0.0
0.0
0.0
0.0
0.0
0.0
0.0
0.0
0.0
0.0
0.0
0.0
0.0
0.0
0.0
0.0
0.0
0.0
0.0
0.0
0.0
0.0
0.0
0.0
0.0
0.0
0.0
0.0
0.0
-0.0
1.1546849402912442e-06
-8.495183388325485e-06
6.751757835812936e-06
-1.4571720204402773e-05
7.403628489957425e-06
-1.2931999009056998e-05
3.872403959608656e-06
-8.663822904972407e-06
2.300447829154432e-06
-1.3410980124286228e-05
1.4279223506581934e-06
-1.3087139755802539e-05
2.4044769119490466e-07
-1.358901014361043e-05
1.6285957223567717e-06
-9.482834452642928e-06
-2.2211858198209138e-06
-1.1428094757349151e-05
-1.0484169625213154e-05
-1.1009159400229789e-05
-8.363187207764703e-06
-1.3389202821284561e-05
-5.5984556320261266e-06
-1.4588637173200563e-05
-6.468827197696634e-06
-1.4470905761835513e-05
-4.841736660886894e-06
-1.9238312507073338e-05
1.2994717342088861e-06
-1.5677181958698125e-05
1.6257974603780385e-06
-1.1754872125264226e-05
2.778639305679767e-06
-7.557379755018346e-06
1.4663195339390772e-07
-3.5645795151910593e-06
3.6127400031252267e-06
4.083575167637447e-06
-1.482220781353327e-06
1.1177579078190096e-05
-4.012490001895072e-06
1.1684485882472098e-05
-2.9719468840603563e-06
1.4897498814101974e-05
-1.3076235693758647e-05
2.3444880236776952e-05
-1.7885396023959762e-05
2.5890623973464827e-05
-1.212255838170962e-05
2.1533315772898696e-05
-1.5117489507911293e-05
1.5613039756791312e-05
-9.791556056055498e-06
1.9473689149246724e-05
-3.551360417325211e-06
1.6094326149572948e-05
-1.2825421370316105e-06
1.6196884939570386e-05
-7.928944482181459e-06
1.559078917243909e-05
-9.067903126019627e-06
9.016116392106005e-06
-5.119728093337113e-06
0.0
0.0
0.0
0.0
0.0
0.0
0.0
0.0
0.0
0.0
0.0
0.0
0.0
0.0
0.0
0.0
0.0
0.0
0.0
0.0
0.0
0.0
0.0
0.0
0.0
0.0
0.0
0.0
0.0
0.0
0.0
0.0
0.0
0.0
0.0
0.0
0.0
-0.0
-2.473324747204911e-06
-7.343674356617354e-07
1.4657497634768595e-07
-4.6429463677067157e-07
-5.891822199791924e-06
3.5066746745071792e-06
-8.44345866785178e-06
3.5026292202353615e-06
-1.1385572292919385e-05
2.3810443912022722e-06
-1.564927768341221e-05
-8.096968075500878e-06
-1.1269794454281466e-05
-1.2566062995394374e-05
-1.3638076771515288e-05
-6.563465045702769e-06
-1.683678511388086e-05
-3.961868899967592e-06
-1.6036521675694532e-05
-5.586506538867203e-07
-1.97975626177348e-05
-3.2084759187965564e-07
-1.6877904422040516e-05
2.8856945100732113e-07
-1.436609916639406e-05
-2.8451658897776158e-06
-1.0570106683242077e-05
-4.862824421861979e-06
-8.590228189682637e-06
-1.013999684340915e-05
-1.763539676379284e-05
-1.5253492038016142e-05
-2.7279614105433515e-05
-9.902872624870591e-06
-3.544529646921962e-05
-1.3521929150332022e-05
-3.45217111274763e-05
-1.65002524286852e-05
-3.7775719278876006e-05
-1.1219993148359037e-05
-4.085477873766077e-05
-1.2848737798189876e-05
-4.1779582208537445e-05
-1.2424029160943818e-05
-4.05656879952268e-05
-1.2814092415226608e-05
-3.816110550269845e-05
-1.744348002175454e-05
-3.203277080657587e-05
-1.679622249022278e-05
-2.9121344511723895e-05
-9.085610356412896e-06
-3.124479008605492e-05
-3.8052147782130847e-06
-2.9834712625106324e-05
-3.95035770638137e-06
-2.2255275195859806e-05
5.704351537839586e-06
-1.7430583930890296e-05
1.0350120249810286e-05
-1.5346727165853036e-05
1.755536786445419e-05
-1.0901999912632704e-05
8.899187044983522e-06
-1.1736964865501894e-05
0.0
0.0
0.0
0.0
0.0
0.0
0.0
0.0
0.0
0.0
0.0
0.0
0.0
0.0
0.0
0.0
0.0
0.0
0.0
0.0
0.0
0.0
0.0
0.0
0.0
0.0
0.0
0.0
0.0
0.0
0.0
0.0
0.0
0.0
0.0
-0.0
-9.397937521935458e-07
-7.623245358665027e-07
6.575942796755379e-06
-8.616777401970985e-06
1.1693571101526031e-05
-1.0753176114210628e-05
9.521485006196018e-06
-1.1484794222381677e-05
1.3214482979599693e-06
-1.0259094552771345e-05
2.7707798640742217e-06
-1.1773866856390999e-05
1.4710542569121737e-06
-1.0511681339774932e-05
3.366382828491974e-06
-5.09482309951292e-06
8.443209333861946e-07
-5.093546175045331e-06
-2.49213202541677e-06
-1.9566193855072993e-07
8.856726327110886e-07
-4.3060069834756035e-06
-6.567828587767358e-06
-5.025130558160875e-06
-3.92957634045726e-06
-1.0014248907311999e-05
-7.495769051125288e-08
-1.2616341028718844e-05
3.3566322673379446e-06
-1.4575841147361441e-05
5.572213712762905e-06
-1.5828655590847283e-05
8.279129176593989e-06
-9.700025542551413e-06
7.739595701038222e-06
-4.5774651180812894e-06
9.218682295450177e-06
1.5679707872904178e-06
8.165303500368213e-06
4.603008237088179e-06
4.751621040095704e-06
1.039292377125713e-05
-1.0810735050446266e-06
1.1525688896545971e-05
-4.717086316162392e-06
1.4158314143023713e-05
-5.986800307787226e-06
2.2049055968960642e-05
-5.720324013100434e-06
2.4351582013865377e-05
-5.786667113145003e-06
2.3345109024503385e-05
-2.347394426030597e-06
1.4117038240699157e-05
-5.462204626060803e-06
1.663786300114192e-05
-2.3612573013089567e-06
1.6514855692574674e-05
-2.0766579937227568e-07
1.824464025043499e-05
1.051436440372474e-06
1.7625334607387047e-05
-4.009940855112752e-06
1.271279452715994e-05
-3.092710059479425e-07
5.415259737644499e-06
-3.3503102038625563e-06
0.0
0.0
0.0
0.0
0.0
0.0
0.0
0.0
0.0
0.0
0.0
0.0
0.0
0.0
0.0
0.0
0.0
0.0
0.0
0.0
0.0
0.0
0.0
0.0
0.0
0.0
0.0
0.0
0.0
0.0
0.0
0.0
0.0
-0.0
-3.338248581134064e-06
6.466331608171769e-07
5.855640601396965e-07
1.0544568268753786e-06
-5.983513810721153e-06
-3.755898128518713e-07
-1.2411888974063531e-05
1.4851767543318986e-06
-1.753657617143774e-05
-3.943848903328607e-06
-2.3618462621941182e-05
-5.998715152430017e-06
-2.8572077500114823e-05
-9.245330518697074e-06
-2.620732586523113e-05
-1.17950242029009e-05
-2.4501246947350414e-05
-3.4353364829110665e-06
-2.191461079070037e-05
4.976875021939266e-07
-2.2618050789724087e-05
2.8760627526305066e-06
-2.5176252935558993e-05
5.092826668476279e-06
-2.4559808479710913e-05
4.025857414951745e-06
-1.9444741810419446e-05
7.565514301185252e-08
-1.2026407456172689e-05
-2.776982835503933e-06
-1.1831067364827494e-05
-1.104093847964851e-05
-1.7521010880784623e-05
-1.2673896844280432e-05
-1.939565302850397e-05
-1.2391024573200085e-05
-2.332688842142377e-05
-1.2062851078632342e-05
-2.3778026212143006e-05
-1.060452310571286e-05
-3.208631286539425e-05
-1.0875622478675962e-05
-3.322054784650136e-05
-1.1244403346624935e-05
-3.075468828126395e-05
-1.2449011964291014e-05
-3.477182943759312e-05
-1.1983531055632415e-05
-3.091426066912083e-05
-1.8274159694344467e-05
-2.5075411727356117e-05
-2.2832027398678216e-05
-2.3426983894016772e-05
-1.364293811468778e-05
-2.865894443881115e-05
-7.90228524401212e-06
-2.6809097931692558e-05
1.4037872333336706e-06
-2.9498430262910767e-05
5.758929687503898e-06
-2.6138303393150425e-05
1.331318458432867e-05
-2.5514324227759258e-05
1.875915183806087e-05
-1.850375886685151e-05
1.416327821840641e-05
-1.4227699758485005e-05
7.291316594474358e-06
-8.428572702336216e-06
0.0
0.0
0.0
0.0
0.0
0.0
0.0
0.0
0.0
0.0
0.0
0.0
0.0
0.0
0.0
0.0
0.0
0.0
0.0
0.0
0.0
0.0
0.0
0.0
0.0
0.0
0.0
0.0
0.0
0.0
0.0
-0.0
-5.8143726641650305e-06
2.7225774259505827e-07
-4.632180560519659e-07
-4.6880005201148255e-06
4.4757926334097304e-06
-1.0613717948288861e-05
5.245466750697377e-06
-1.0661056711699923e-05
6.476191383908962e-06
-1.1215924423963627e-05
4.804946191151052e-06
-9.94299974435594e-06
7.991866632079529e-06
-8.461166609061841e-06
7.206049725594224e-06
-3.7166842423145814e-06
1.5906984639633223e-07
3.9895479767708287e-07
4.04528450458462e-06
1.3887363991523763e-06
-3.287676502635045e-06
1.8813890994526341e-06
-1.4426734931103615e-06
3.025938482651288e-06
-1.5269576660120446e-07
-5.0470785434427545e-08
-9.045713629773624e-07
-3.2614329038829364e-06
3.090315686550047e-07
-9.000453503337887e-06
4.500659085834745e-06
-1.4003556007952964e-05
8.760330162415026e-06
-1.3957754180368668e-05
1.1427777087873261e-05
-7.4837946063233145e-06
6.151415315230463e-06
-3.999872637947851e-06
9.044702104911404e-06
1.5344065338659092e-06
8.691733268763446e-06
1.192972480559157e-06
1.1617119273007047e-05
5.35660790571902e-06
3.230666248120789e-06
5.867492361751304e-06
3.929748640408754e-06
8.026801995394866e-06
-7.964338542048022e-07
1.0131804492979734e-05
-7.398869227818636e-06
1.9941016735152886e-05
-2.0179608494804546e-06
1.983771277014913e-05
2.169691094070899e-06
1.8505780344522754e-05
-1.0988797659495584e-06
1.6251086461592776e-05
-4.475377650060513e-08
2.1632160529277807e-05
3.803790542206345e-06
1.718457948597053e-05
3.6218427441020986e-06
1.9247792248221525e-05
9.524994487494541e-07
1.6271184404461218e-05
-1.1441215541976894e-08
1.1420457381408808e-05
-2.1219756776762524e-06
9.517978520428377e-06
-3.349299828610146e-07
0.0
0.0
0.0
0.0
0.0
0.0
0.0
0.0
0.0
0.0
0.0
0.0
0.0
0.0
0.0
0.0
0.0
0.0
0.0
0.0
0.0
0.0
0.0
0.0
0.0
0.0
0.0
0.0
0.0
-0.0
1.0177771415255905e-06
-1.4390484785391125e-06
-5.8057402418837475e-06
-3.6793076622272565e-06
-5.683436093284093e-06
-1.668085974926472e-07
-1.1479845805096464e-05
-3.2169420711320087e-06
-2.283764610843716e-05
-4.844000756183067e-06
-2.810021336383344e-05
-8.256544285769245e-06
-3.3389174891083754e-05
-1.1935487536696032e-05
-3.1663325509536546e-05
-1.5339049305279084e-05
-3.3226464071432246e-05
-1.1180673385710216e-05
-3.124640025803135e-05
-4.920283826192854e-06
-2.9126051410432144e-05
-2.1614418478538232e-06
-3.022516125241157e-05
5.178537265279018e-06
-2.874998183551085e-05
1.4459427405738377e-05
-2.1967762737639072e-05
1.0252249127850908e-05
-1.5761993930645904e-05
2.8994431751810475e-06
-1.4304801033838258e-05
-3.1642757605010023e-06
-9.08009268460596e-06
-7.515594012410171e-06
-5.994513375983058e-06
-1.3215830649620123e-05
-6.045391225981467e-06
-1.1900314702925623e-05
-9.963920757738647e-06
-7.775463198151658e-06
-1.726667492338237e-05
-8.424132626636425e-06
-2.2041542423197864e-05
-8.103680323806158e-06
-2.640417318327329e-05
-7.559427170396876e-06
-2.5294685388290758e-05
-5.928340230885944e-06
-2.7620788466055287e-05
-5.683479094060028e-06
-2.53471019183965e-05
-1.2768543485988492e-05
-2.355621722310764e-05
-1.8889788483420338e-05
-2.5712191682340357e-05
-1.6828105495536717e-05
-1.915656964307274e-05
-1.4293426209639293e-05
-2.4259667870358345e-05
-7.27711387655044e-06
-3.231383015350704e-05
5.407242247786868e-06
-3.1746960490321945e-05
1.3313847523977568e-05
-3.380264120585122e-05
2.0660218369374522e-05
-2.4142041480216086e-05
2.3022851320957957e-05
-1.9206006426220493e-05
1.4112166557463183e-05
-8.11376584149028e-06
4.159772116838615e-06
-2.133772966186868e-06
0.0
0.0
0.0
0.0
0.0
0.0
0.0
0.0
0.0
0.0
0.0
0.0
0.0
0.0
0.0
0.0
0.0
0.0
0.0
0.0
0.0
0.0
0.0
0.0
0.0
0.0
0.0
-0.0
-8.909175803251441e-06
2.8329142442270866e-06
-5.87256191745498e-06
5.699804288834079e-07
-2.1941075011298017e-06
-8.631197092201962e-06
-1.8819179226074708e-06
-1.081347373540857e-05
-3.7294733999112052e-06
-1.1494344085465016e-05
3.047212270026915e-06
-7.739758928003092e-06
1.0539616340685595e-05
-4.822420926424863e-06
1.460538331784507e-05
-5.172057188908245e-06
1.002292894320013e-05
1.2534493781462812e-06
3.8143262267709894e-06
4.1027955455336724e-06
2.8244615977203136e-06
1.8103957877445576e-06
4.043614014939142e-06
8.90468646252879e-07
-3.1970544046095796e-06
5.871703786479902e-06
-6.92035788544334e-06
3.5348555158120284e-06
-3.6972797986733064e-06
-3.626243834290711e-06
-1.8218593044781542e-06
-5.452494232990967e-06
8.198189868582774e-06
-1.2053018704657865e-05
7.922650755549431e-06
-1.3337424892961699e-05
1.0793475261185114e-05
-7.054146332742625e-06
5.775302651526921e-06
-5.167508443745659e-06
9.689315203610447e-06
-2.0421320795038333e-06
1.1746183879168853e-05
-3.7066760313050847e-06
8.946376912132375e-06
-8.584805524105538e-07
8.699065700901541e-06
1.2292584639020776e-06
8.828306460939209e-06
1.7655389947588088e-06
1.333205846245106e-06
6.830288713771504e-06
1.1504430055495362e-06
1.2795468236861948e-05
2.785406134827758e-06
1.7646668698759787e-05
3.1357526146224006e-06
1.3756394346926231e-05
2.422341783141027e-06
1.5286080642520912e-05
9.107246058609732e-06
2.512233031819654e-05
9.210524468591032e-06
2.2601211077133178e-05
7.80027005169669e-06
1.7702695372964912e-05
3.247676078648683e-06
1.901824034936043e-05
3.2893863920746964e-06
2.1647863537227454e-05
3.382671832412647e-06
1.8078032578905982e-05
-2.2449769045935564e-06
9.858601655618875e-06
-9.141745290563972e-06
0.0
0.0
0.0
0.0
0.0
0.0
0.0
0.0
0.0
0.0
0.0
0.0
0.0
0.0
0.0
0.0
0.0
0.0
0.0
0.0
0.0
0.0
0.0
0.0
0.0
-0.0
4.1051154043894305e-06
-2.72010753693755e-06
-3.8562999362891165e-06
-4.37438000406833e-06
-1.2040754291506429e-05
-9.683190774031045e-06
-1.4577554892143516e-05
-1.0997806055200917e-05
-1.9894437829595437e-05
-7.389019782935878e-06
-2.6732174786181443e-05
-1.0577441051567991e-05
-2.9082477529302346e-05
-1.2885645639177193e-05
-3.485184681567315e-05
-1.6690443348778646e-05
-3.335302201848847e-05
-2.0100731295144202e-05
-3.4371240979687234e-05
-1.471562708283744e-05
-3.464150854164423e-05
-9.601331296208744e-06
-3.378152557034493e-05
-9.27086912787945e-07
-2.89160549452733e-05
4.49331752025844e-06
-2.977681601144411e-05
1.2686435166940816e-05
-2.0216102047428048e-05
1.1955436676128555e-05
-1.2612898869068528e-05
4.141078065005654e-06
-1.2016624618704305e-05
-1.6008240642669653e-06
-3.4924821253599304e-06
-6.270471801133637e-06
3.5390605913945704e-06
-1.3977009241056064e-05
2.5124250424898017e-06
-1.252361198174804e-05
-3.3725636499455145e-07
-1.0182739612288513e-05
-9.861835113317553e-06
-1.2042534814893317e-05
-8.423744819944624e-06
-6.382790094104245e-06
-1.1813643024925585e-05
1.034190641331414e-06
-1.3115449847894728e-05
3.342234711307832e-06
-1.9780804874045997e-05
7.057674220119894e-06
-1.9414231676334296e-05
-1.2965431756970204e-07
-2.037092182225856e-05
-1.2477024562674083e-05
-1.743103494534362e-05
-1.3995221416076823e-05
-1.908600006802578e-05
-1.9205141348613898e-05
-2.6391467783749465e-05
-1.2996494881596757e-05
-2.84742719914038e-05
-2.059362355268426e-06
-3.505159389339704e-05
1.2064280335077602e-05
-3.1699422259605566e-05
2.0529816592947815e-05
-2.9333549180673754e-05
2.7603910117077713e-05
-1.6597983070356477e-05
2.182968021000141e-05
-1.2845038986632871e-05
1.2503838537680971e-05
-2.7536599919848145e-06
9.054872757118452e-06
-1.0758266543093051e-06
0.0
0.0
0.0
0.0
0.0
0.0
0.0
0.0
0.0
0.0
0.0
0.0
0.0
0.0
0.0
0.0
0.0
0.0
0.0
0.0
0.0
0.0
0.0
-0.0
-6.036461430797363e-06
1.2953810011683064e-06
-3.729630935176085e-06
4.913138647801078e-06
-5.793600618644061e-06
2.8707880967089582e-06
-8.445556033698217e-06
-8.738567960938837e-06
-4.606085363760451e-06
-9.148808957809048e-06
1.53840975919875e-06
-4.908796717375966e-06
3.3023764085127386e-06
-3.5472245127349363e-06
1.1194446028263543e-05
-2.94008734511739e-06
7.4064686473727026e-06
-1.0814181907876992e-06
5.274541407343629e-06
1.871069806986705e-06
5.673205734181456e-06
4.599630013635229e-06
1.1544464049241944e-06
7.8514679547626e-06
1.0742355441577965e-06
9.321196708394486e-06
2.2600910096490704e-06
6.995273392833047e-06
-4.595225264305672e-06
5.800476811237281e-06
-1.1335660450122189e-06
-2.172955917153949e-06
2.4092134942926984e-06
-6.448622185070426e-06
4.4966809501022456e-06
-1.0120552236875223e-05
4.963260310933135e-06
-1.3801486647777017e-05
8.872124806695626e-06
-8.428709885285266e-06
8.510531385367005e-06
-3.2999220649427345e-06
7.950462655314404e-06
-4.651351911928913e-06
6.77737090089466e-06
-6.149136671573825e-06
9.628597249348e-06
-2.8426764586765314e-06
1.267693584931746e-05
-1.479215921735195e-06
6.261493700579758e-06
-1.720136762652902e-07
3.3953898175356936e-06
2.8446204584955e-06
3.3394752300912836e-06
2.70549392940998e-06
5.5285216984493555e-06
1.1737655697098808e-05
1.2462331169106807e-05
1.4952635597076549e-05
1.4764646307139812e-05
1.683634465633559e-05
8.719236959252225e-06
2.1081825882142284e-05
1.161243298167977e-05
2.300979412369885e-05
1.1491644059151046e-05
2.082982889661103e-05
9.885781363738081e-06
2.3757583168567242e-05
6.974034180262811e-06
2.3946295152114125e-05
3.1345465698182055e-06
2.339308538095917e-05
-6.065587338566552e-06
1.9725288561007037e-05
-9.529559193299572e-06
1.3932556797621059e-05
-1.1797669702994264e-05
0.0
0.0
0.0
0.0
0.0
0.0
0.0
0.0
0.0
0.0
0.0
0.0
0.0
0.0
0.0
0.0
0.0
0.0
0.0
0.0
0.0
-0.0
6.132394340691104e-06
-1.1859046928325212e-05
5.612099130097375e-06
-1.5593175584609855e-05
-2.8674404388580747e-06
-1.8175123872743258e-05
-1.4568270927040797e-05
-1.7905659799124487e-05
-1.7618130383134573e-05
-1.6283843045663322e-05
-2.173068814094984e-05
-1.666065661461668e-05
-2.7345267781471293e-05
-1.7165571761145817e-05
-2.6221402314991643e-05
-2.1239506345638064e-05
-3.404125942300468e-05
-2.3144696810027926e-05
-3.5093000597367625e-05
-2.4827555201829624e-05
-3.263541633359727e-05
-2.1036729393104525e-05
-3.083144290877614e-05
-1.3708421514780445e-05
-3.3691441665305924e-05
-7.963293633781986e-07
-2.845064834312124e-05
1.082985753749079e-05
-2.402585778296431e-05
1.3796468208873182e-05
-1.414334441346592e-05
1.6248886182258513e-05
-1.9819317001848914e-06
9.777920233046024e-06
-1.588425133834551e-06
4.369469049772413e-06
4.509710193851031e-06
-6.087499961309937e-07
1.2256474303001028e-05
-9.595371169545693e-06
1.1635159344944313e-05
-1.6810930990918624e-05
1.4249014090193905e-05