# vtk DataFile Version 2.0
Acoustic field
ASCII
DATASET STRUCTURED_POINTS
DIMENSIONS 102 102 1
ORIGIN -0.01 -0.01 0
SPACING 0.0002 0.0002 1
POINT_DATA 10404
SCALARS pressure float 1
LOOKUP_TABLE default
0.0
0.0
0.0
0.0
0.0
0.0
0.0
0.0
0.0
0.0
0.0
0.0
0.0
0.0
0.0
0.0
0.0
0.0
0.0
0.0
0.0
0.0
0.0
0.0
0.0
0.0
0.0
0.0
0.0
0.0
0.0
0.0
0.0
0.0
0.0
0.0
0.0
0.0
0.0
0.0
0.0
0.0
0.0
0.0
0.0
0.0
0.0
0.0
0.0
0.0
-3.209989850086117e-05
0.0
0.0
0.0
0.0
0.0
0.0
0.0
0.0
0.0
0.0
0.0
0.0
0.0
0.0
0.0
0.0
0.0
0.0
0.0
0.0
0.0
0.0
0.0
0.0
0.0
0.0
0.0
0.0
0.0
0.0
0.0
0.0
0.0
0.0
0.0
0.0
0.0
0.0
0.0
0.0
0.0
0.0
0.0
0.0
0.0
0.0
0.0
0.0
0.0
0.0
0.0
0.0
0.0
0.0
0.0
0.0
0.0
0.0
0.0
0.0
0.0
0.0
0.0
0.0
0.0
0.0
0.0
0.0
0.0
0.0
0.0
0.0
0.0
0.0
0.0
0.0
0.0
0.0
0.0
0.0
0.0
0.0
0.0
0.0
0.0
0.0
0.0
0.0
0.0
0.0
0.0
0.0
1.1312020804088032e-05
-9.471224671004272e-07
1.3855749510782232e-05
-2.8149535364683285e-06
1.3597268531805215e-05
2.8852137663882495e-06
1.3907641269810449e-05
7.237010671625885e-06
9.954575635622746e-06
8.524542894986038e-06
2.8451439308102654e-06
1.1018743297918343e-05
1.7807176380540193e-06
1.4157723432321789e-05
-3.987398777180483e-06
1.3898888691326725e-05
-7.674254486994931e-06
8.899910060582116e-06
-8.574997741946748e-06
0.0
-0.0
0.0
-0.0
0.0
0.0
0.0
0.0
0.0
0.0
0.0
0.0
0.0
0.0
0.0
0.0
0.0
0.0
0.0
0.0
0.0
0.0
0.0
0.0
0.0
0.0
0.0
0.0
0.0
0.0
0.0
0.0
0.0
0.0
0.0
0.0
0.0
0.0
0.0
0.0
0.0
0.0
0.0
0.0
0.0
0.0
0.0
0.0
0.0
0.0
0.0
0.0
0.0
0.0
0.0
0.0
0.0
0.0
0.0
0.0
0.0
0.0
0.0
0.0
0.0
0.0
0.0
0.0
0.0
0.0
0.0
0.0
0.0
0.0
0.0
0.0
0.0
0.0
-1.1635493525523772e-05
-3.369430302979243e-06
-1.2265592151719692e-05
-2.1567854121207393e-06
-1.5979505963997642e-05
-8.64332471909003e-07
-1.2042241281797025e-05
-2.739655162791591e-06
-1.084703754456237e-05
-3.904483491700597e-06
-1.2231476584609994e-05
-3.2835721412912386e-06
-1.5392647769811617e-05
-2.159387851953855e-06
-2.4949096767337776e-05
-9.645446986619376e-07
-1.245564741270078e-05
-1.9095155885064536e-06
-8.221877371318851e-06
-2.193457335064358e-06
-6.168221233122856e-06
-3.961405450724671e-06
-3.471026784311843e-06
-5.252544594060244e-06
-2.7916240544362144e-07
-7.566847715424994e-06
-1.6350017991407028e-06
-8.476495719950267e-06
0.0
0.0
0.0
0.0
0.0
0.0
0.0
0.0
0.0
0.0
0.0
0.0
0.0
0.0
0.0
0.0
0.0
0.0
0.0
0.0
0.0
0.0
0.0
0.0
0.0
0.0
0.0
0.0
0.0
0.0
0.0
0.0
0.0
0.0
0.0
0.0
0.0
0.0
0.0
0.0
0.0
0.0
0.0
0.0
0.0
0.0
0.0
0.0
0.0
0.0
0.0
0.0
0.0
0.0
0.0
0.0
0.0
0.0
0.0
0.0
0.0
0.0
0.0
0.0
0.0
0.0
0.0
0.0
0.0
0.0
0.0
1.2333917113759012e-05
-8.344383412617707e-06
8.262506537312982e-06
-7.779505618446252e-06
4.6978231871450295e-06
-9.205832231469447e-06
6.722545044606964e-06
-7.215933005770829e-06
1.0423404588803707e-05
-7.1528949175281156e-06
9.873223188116477e-06
-7.500979784402968e-06
1.0731954681925257e-05
8.260036294808153e-07
1.0404042119891267e-05
4.772291245785259e-06
8.737949124892723e-06
9.189499615900925e-06
6.354241250990818e-06
1.2699598530861702e-05
9.035210641211031e-07
1.3500829688585628e-05
-3.912833298680112e-06
1.3107618741215327e-05
-5.597321216263957e-06
9.040813342550416e-06
-7.045128656307251e-06
5.337681943356574e-06
-8.056906806166158e-06
3.9610149660977105e-06
-8.175837104685735e-06
4.4410837276404735e-06
-1.0450550014899534e-05
1.6170200368386503e-06
-1.0196555550542798e-05
0.0
-0.0
0.0
0.0
0.0
0.0
0.0
0.0
0.0
0.0
0.0
0.0
0.0
0.0
0.0
0.0
0.0
0.0
0.0
0.0
0.0
0.0
0.0
0.0
0.0
0.0
0.0
0.0
0.0
0.0
0.0
0.0
0.0
0.0
0.0
0.0
0.0
0.0
0.0
0.0
0.0
0.0
0.0
0.0
0.0
0.0
0.0
0.0
0.0
0.0
0.0
0.0
0.0
0.0
0.0
0.0
0.0
0.0
0.0
0.0
0.0
0.0
0.0
0.0
0.0
-6.954850125315873e-07
-9.470213360590435e-06
-1.4426927218117806e-06
-1.2174905744281911e-05
-6.703309432717083e-07
-1.461680148383423e-05
-2.9396604149346837e-06
-1.4272256921669713e-05
-6.6674759700156404e-06
-1.3713053682353558e-05
-6.480799604251486e-06
-1.6154941701167022e-05
-8.7774315049128e-06
-1.6714194633489877e-05
-8.130491527043603e-06
-1.9124645773336747e-05
-1.0346295497365477e-05
-2.4648588494610277e-05
-7.652286380848147e-06
-2.6509909789410397e-05
-2.6015057906042987e-06
-2.2001151979669123e-05
-3.2413802578068284e-06
-1.6853116873182125e-05
-3.255079171038182e-06
-1.2064387953755965e-05
-4.454442677560926e-06
-8.578517561527271e-06
-3.3124843348412864e-06
-4.162802832227885e-06
-4.615400340686012e-06
-2.0177232386830355e-06
-5.195915410183941e-06
1.384314261005323e-06
-1.437259928949134e-06
-1.3528613894874749e-06
-1.5448464000286191e-06
1.8425301101831506e-06
-2.3879999422567444e-06
0.0
0.0
0.0
0.0
0.0
0.0
0.0
0.0
0.0
0.0
0.0
0.0
0.0
0.0
0.0
0.0
0.0
0.0
0.0
0.0
0.0
0.0
0.0
0.0
0.0
0.0
0.0
0.0
0.0
0.0
0.0
0.0
0.0
0.0
0.0
0.0
0.0
0.0
0.0
0.0
0.0
0.0
0.0
0.0
0.0
0.0
0.0
0.0
0.0
0.0
0.0
0.0
0.0
0.0
0.0
0.0
0.0
0.0
0.0
0.0
-0.0
8.743830059037662e-06
-3.3398741843402853e-06
4.828945448987796e-06
-6.763041394553406e-06
7.571608605379667e-06
-1.2530632382399281e-05
8.822196361221263e-06
-1.3175541297681559e-05
5.131511437953694e-06
-1.5252499307030074e-05
4.79020440099634e-06
-1.3047261910387398e-05
8.41842929936801e-06
-1.0690347902220107e-05
8.703791758788984e-06
-9.068884000941692e-06
7.642562463555692e-06
-3.588908965471517e-06
6.501722434757094e-06
3.6008078987051856e-07
6.8055628311188574e-06
6.5651685811637e-06
5.123070359755057e-06
8.776778156128798e-06
2.117162026389957e-06
1.1243367316225178e-05
2.040956100130126e-06
9.965287940473174e-06
-4.190979082043951e-06
8.616115339674427e-06
-6.0061673952008855e-06
4.301427417614018e-06
-6.304969604798441e-06
3.4820536521229994e-06
-7.411834947969441e-06
5.036414505591262e-06
-7.58917643614404e-06
1.6179117186040486e-06
-7.394247743218049e-06
2.909873165378813e-06
-4.6332755022666685e-06
4.704995171526036e-06
-8.009243327994387e-06
0.0
-0.0
0.0
0.0
0.0
0.0
0.0
0.0
0.0
0.0
0.0
0.0
0.0
0.0
0.0
0.0
0.0
0.0
0.0
0.0
0.0
0.0
0.0
0.0
0.0
0.0
0.0
0.0
0.0
0.0
0.0
0.0
0.0
0.0
0.0
0.0
0.0
0.0
0.0
0.0
0.0
0.0
0.0
0.0
0.0
0.0
0.0
0.0
0.0
0.0
0.0
0.0
0.0
0.0
0.0
0.0
0.0
-9.444156561680632e-07
-1.0039542199899851e-05
8.804778723233807e-07
-1.06299942917028e-05
7.758035222810505e-08
-1.4290620492290553e-05
1.2696840824328166e-06
-1.7979171351511886e-05
-1.905698387127913e-06
-1.9425716992432614e-05
-4.491497096324596e-06
-1.58391761779182e-05
-7.970126457497453e-06
-1.7539324421386296e-05
-1.2501285765393102e-05
-2.0224146486145315e-05
-1.266105774118856e-05
-2.122587353501712e-05
-1.0838323289758664e-05
-2.3826675931300557e-05
-1.2444933448173127e-05
-2.60897750498055e-05
-1.4029126638125709e-05
-2.8606314010715986e-05
-1.1417185375224718e-05
-2.5196875869581514e-05
-8.116388750104297e-06
-2.349532724207429e-05
-6.194243679038687e-06
-1.7022316826624676e-05
-4.728664957729107e-06
-1.3089673290393373e-05
-4.766024772091677e-06
-5.997283490032045e-06
-4.723442144883178e-06
-2.2549920935408894e-06
-1.995931379925997e-06
-2.3666242294103047e-07
-1.5421420922468187e-06
2.206436430883634e-06
-1.0244501896400955e-07
3.3236838174790176e-06
-1.4110991477405536e-06
1.6470395566421797e-06
-2.488376099021306e-06
2.726675303377876e-07
-7.759119281880265e-06
0.0
-0.0
0.0
0.0
0.0
0.0
0.0
0.0
0.0
0.0
0.0
0.0
0.0
0.0
0.0
0.0
0.0
0.0
0.0
0.0
0.0
0.0
0.0
0.0
0.0
0.0
0.0
0.0
0.0
0.0
0.0
0.0
0.0
0.0
0.0
0.0
0.0
0.0
0.0
0.0
0.0
0.0
0.0
0.0
0.0
0.0
0.0
0.0
0.0
0.0
0.0
0.0
-0.0
3.5139511127107854e-06
-3.1413126732055186e-06
4.253786775696468e-06
-3.6161172623845683e-06
6.187298707173585e-06
-1.1243997143320725e-05
4.10604170971882e-06
-1.5111358222556817e-05
2.9737287927327757e-06
-1.4365075866387898e-05
2.3026593540850634e-06
-1.9033325135387013e-05
2.5565758640286152e-06
-2.1009658246893013e-05
1.802601379720782e-06
-2.177071987908791e-05
3.986322843343884e-06
-1.767829652875862e-05
4.381259984740384e-06
-1.5142778753666169e-05
3.0294621859130836e-06
-1.090930249174149e-05
3.537114727077872e-06
-3.967473253300369e-06
4.173849931742382e-06
1.3559187139958137e-06
4.004274161321044e-06
5.9323438586183345e-06
2.480471220685532e-06
7.850606646025214e-06
7.39961624372338e-07
8.610578973203609e-06
-8.791698351004055e-07
6.422132272963264e-06
3.785485608055482e-08
1.4830212145760264e-06
-4.961263979582252e-06
4.792408452354091e-06
-4.423963147419275e-06
5.018107424020869e-06
-5.138928043436746e-06
3.4179078994947794e-06
-5.438184786061029e-06
4.572567261420948e-06
-3.6303560396621535e-06
9.810281642348657e-06
-3.7643873333358935e-06
9.702410078643902e-06
-3.80598610844372e-06
8.554148304202096e-06
-2.7086837986030696e-06
0.0
-0.0
0.0
0.0
0.0
0.0
0.0
0.0
0.0
0.0
0.0
0.0
0.0
0.0
0.0
0.0
0.0
0.0
0.0
0.0
0.0
0.0
0.0
0.0
0.0
0.0
0.0
0.0
0.0
0.0
0.0
0.0
0.0
0.0
0.0
0.0
0.0
0.0
0.0
0.0
0.0
0.0
0.0
0.0
0.0
0.0
0.0
0.0
0.0
-5.0694011044526255e-06
-1.0936656801501221e-05
-2.3378082046910095e-06
-1.115561664201954e-05
-1.9651107524019274e-06
-1.4653398568585371e-05
-4.4584434525594266e-07
-1.4814900027044155e-05
6.349906775455423e-07
-1.7051997807413202e-05
-1.1111234488732672e-06
-2.169305404253742e-05
-6.283871191578685e-06
-1.937734940921178e-05
-8.510509728526023e-06
-1.979823006869941e-05
-8.853299555437834e-06
-1.7130658519725207e-05
-1.628098878368767e-05
-2.1225462432831198e-05
-1.7504236951601143e-05
-2.3335434025687863e-05
-1.8263351725628912e-05
-2.661012759479393e-05
-1.7078025015805953e-05
-2.9474045864601236e-05
-1.887425252650221e-05
-3.265775697694096e-05
-1.548516588166513e-05
-3.20616271030813e-05
-1.222214610844234e-05
-2.401318738823267e-05
-9.95278963121763e-06
-1.6858288399759613e-05
-4.297517079274122e-06
-1.1862758592437711e-05
-7.184601195244208e-06
-2.807330483050321e-06
-3.3562704339567645e-06
-8.231384316010878e-07
-2.334812240372038e-06
1.9574582018098827e-06
1.4166651964599807e-06
1.2977865570119062e-06
2.0394459737861995e-07
4.813750354481222e-07
1.5249179488171549e-07
2.3197171650003065e-06
8.127225534231222e-07
6.761237305145659e-08
-5.130821103906777e-06
-3.3146601472941743e-06
-6.017190169593647e-06
-2.7516292122456986e-06
-1.1041863934271714e-05
0.0
0.0
0.0
0.0
0.0
0.0
0.0
0.0
0.0
0.0
0.0
0.0
0.0
0.0
0.0
0.0
0.0
0.0
0.0
0.0
0.0
0.0
0.0
0.0
0.0
0.0
0.0
0.0
0.0
0.0
0.0
0.0
0.0
0.0
0.0
0.0
0.0
0.0
0.0
0.0
0.0
0.0
0.0
0.0
-0.0
0.0
-9.070242241045319e-07
2.1889894555618115e-07
-3.2202584004012045e-06
2.901971876448705e-06
-3.432894964759923e-06
5.626438592757773e-06
-8.529554919762196e-06
3.0362032655223607e-06
-1.1987790289155235e-05
2.047499220021334e-06
-1.596178455012983e-05
5.12764087501985e-07
-1.685213700200026e-05
3.2521999020357046e-07
-2.1575404031477216e-05
-1.738686851164148e-06
-2.7221007518307106e-05
-1.3725401344596527e-07
-2.710178354022953e-05
3.224249709421708e-07
-2.2488614729509445e-05
1.317451762699026e-06
-1.9943679212419657e-05
1.0314177304581107e-06
-1.6717437198351706e-05
2.3377035923379246e-06
-9.712681029797915e-06
1.3469517015193494e-06
-3.874268090715777e-06
-1.4404039496401232e-06
1.1432923108318664e-06
1.2501173229798883e-07
4.014497584018132e-06
9.58939765465483e-07
1.5467116516010808e-06
4.2954285447807397e-07
5.2739474005279e-07
-2.1205105950118803e-06
-7.745105060739858e-07
-4.455636541538583e-06
5.27773921819332e-07
-8.636565821532494e-07
1.9254251745891464e-06
-5.508874385606057e-07
2.688467214250234e-06
-1.5543104685449333e-06
7.693739276248482e-06
2.570788847114535e-07
1.537470483228102e-05
1.6202773694412513e-07
1.702497953692534e-05
-1.0563416341718083e-06
1.622078168966621e-05
-1.8694206069282664e-06
1.6165765861398017e-05
1.5580913604557935e-07
2.2857740977588174e-05
-0.0
0.0
0.0
0.0
0.0
0.0
0.0
0.0
0.0
0.0
0.0
0.0
0.0
0.0
0.0
0.0
0.0
0.0
0.0
0.0
0.0
0.0
0.0
0.0
0.0
0.0
0.0
0.0
0.0
0.0
0.0
0.0
0.0
0.0
0.0
0.0
0.0
0.0
0.0
0.0
0.0
0.0
-0.0
-3.071046013002041e-05
-9.579619958919055e-06
-1.768535845600842e-05
-9.801354994578241e-06
-1.6547460033816843e-05
-6.2918435408155255e-06
-1.6663691341737424e-05
-3.270926051562705e-06
-1.929210503699462e-05
-1.5576793006170085e-06
-1.9719002724420406e-05
1.2429991892885307e-06
-1.523829385868929e-05
-3.7150585209892444e-06
-1.4251414305383132e-05
-9.449083816990365e-06
-1.3553815919223856e-05
-1.1789961805826155e-05
-1.2527096023585691e-05
-1.3497856449068466e-05
-1.46721703390081e-05
-1.7788793151320517e-05
-1.494391093008095e-05
-2.0679719251624035e-05
-2.1682696476989078e-05
-2.0156186517446136e-05
-2.5889794815908082e-05
-1.979648135983964e-05
-2.8247325431325692e-05
-1.868571962919034e-05
-2.931682549076466e-05
-1.4571209519027946e-05
-2.8271403852454656e-05
-1.2661736439085029e-05
-2.435875127455009e-05
-8.666296471547005e-06
-1.783875338435551e-05
-6.751076943811386e-06
-1.1690739299134208e-05
-7.789396492837018e-06
-6.61319700022535e-06
-4.099344605461822e-06
-4.00480015617724e-06
-1.538670669887085e-06
-1.8500143688033852e-06
3.0048693410147124e-06
-3.0332239454543807e-07
2.7788959787650027e-06
-6.343487499873392e-07
1.9555981274984175e-06
9.106512137926611e-07
1.540756405319964e-06
1.4581218475160176e-06
-1.933976536906099e-06
-1.6352559851123375e-06
-9.798753751375072e-06
-1.8475030465077924e-06
-1.1988421159841317e-05
-1.6013142169169972e-06
-1.1099894114748033e-05
0.0
-0.0
0.0
0.0
0.0
0.0
0.0
0.0
0.0
0.0
0.0
0.0
0.0
0.0
0.0
0.0
0.0
0.0
0.0
0.0
0.0
0.0
0.0
0.0
0.0
0.0
0.0
0.0
0.0
0.0
0.0
0.0
0.0
0.0
0.0
0.0
0.0
0.0
0.0
0.0
-0.0
4.350202284277125e-07
-1.7515605032645213e-06
3.121368509251795e-06
-1.893618210417986e-06
2.694243791397269e-06
-1.9667815978383017e-06
3.0022965700729906e-06
-3.4978700639914694e-06
2.9645631277880025e-06
-6.190083378692249e-06
3.1562599604914424e-06
-1.1354272414820853e-05
1.068645535843235e-06
-1.592112521378682e-05
-8.023638662854919e-08
-1.906459373096751e-05
-3.2363186269238854e-06
-2.1126105680813727e-05
-4.206983994724037e-06
-2.5761513099304475e-05
-5.1283568304407665e-06
-2.6181542268524882e-05
-1.8880034458189793e-06
-2.2509196664975264e-05
-2.4371642655772453e-06
-1.936987981065715e-05
-3.99922224061107e-06
-1.916381608059987e-05
1.064210051462885e-06
-1.583762624197258e-05
-4.5390313158708704e-08
-7.881912378799539e-06
-2.496673126729499e-06
-4.410914618860898e-06
-4.2726248878640545e-07
-4.0846570984093355e-06
1.1304150279420152e-06
-2.5354370049487378e-06
5.51084363922117e-07
-5.831125699302473e-06
-1.4890997138298845e-06
-6.295026041424995e-06
-2.518774195177866e-07
-3.791137781799117e-06
-1.2417701001804606e-07
9.957420921544755e-08
2.527145514114491e-06
3.737298718363135e-06
5.452237438780738e-06
9.07538102634174e-06
3.7525054622729523e-06
1.597889550022447e-05
4.080389105781349e-06
1.6380168159686655e-05
-8.304001320255616e-07
1.995442797850316e-05
1.5326572376941614e-06
2.2141620514504315e-05
1.59537836645895e-06
2.2355422926931274e-05
2.6552945124113344e-07
1.3679428543771508e-05
2.8026014764845955e-06
0.0
0.0
0.0
0.0
0.0
0.0
0.0
0.0
0.0
0.0
0.0
0.0
0.0
0.0
0.0
0.0
0.0
0.0
0.0
0.0
0.0
0.0
0.0
0.0
0.0
0.0
0.0
0.0
0.0
0.0
0.0
0.0
0.0
0.0
0.0
0.0
0.0
-0.0
-3.9497661232015795e-05
-4.112683292812131e-06
-3.295423935044867e-05
-1.010542185336898e-05
-2.3392767910593128e-05
-9.20647829233117e-06
-1.9285060640229887e-05
-5.130682905648288e-06
-1.7435678891940526e-05
-4.5467420193371285e-06
-1.675286679068154e-05
-3.492884131673168e-06
-1.5490536474828007e-05
-3.2719099711337323e-06
-1.1250022577326618e-05
-6.877321456646237e-06
-1.155899342147038e-05
-1.2015208605826361e-05
-1.0042289363862212e-05
-1.2337585090594603e-05
-8.951859177787555e-06
-1.4226924449885651e-05
-7.541361193154495e-06
-1.6576336814211164e-05
-8.361472803515396e-06
-1.8529484192490743e-05
-1.2019062101498812e-05
-2.1912690144382357e-05
-1.730037478013974e-05
-2.030070286283457e-05
-2.0843957282969376e-05
-1.9560893032790077e-05
-2.3441001341492304e-05
-1.506298964078272e-05
-2.5577899280804394e-05
-1.1014658429492554e-05
-2.1122021078654574e-05
-1.0225559363874341e-05
-1.7922171143297602e-05
-6.916284681575382e-06
-1.5199707072642501e-05
-6.0474153363985235e-06
-1.064244817619507e-05
-2.632224959043441e-06
-4.173364307129437e-06
2.086659348511301e-06
-2.6775534036465454e-06
4.5302152647247914e-06
-1.7583482669126966e-06
5.343594605988145e-06
-8.581765933414256e-07
3.474724138094154e-06
-9.911801231966657e-07
3.2301201426327063e-06
-1.120975575430656e-06
-1.2299742171978845e-06
2.2851063051372996e-06
-6.284746555654541e-06
1.41056793886148e-06
-9.102684356980043e-06
3.589329601644129e-06
-4.318787601008462e-06
1.7679598726549108e-06
-1.0860096737179186e-06
1.3328696784804624e-07
0.0
0.0
0.0
0.0
0.0
0.0
0.0
0.0
0.0
0.0
0.0
0.0
0.0
0.0
0.0
0.0
0.0
0.0
0.0
0.0
0.0
0.0
0.0
0.0
0.0
0.0
0.0
0.0
0.0
0.0
0.0
0.0
0.0
0.0
0.0
-0.0
1.9958214649878386e-06
-2.9561278928454544e-06
1.8088486631809254e-06
-1.9069037924025229e-06
-4.05643699404521e-08
-1.9931269188471855e-06
2.1789360821655257e-06
-2.8285160746342745e-06
4.80663595432222e-06
-6.5149665748325e-06
2.348542013785501e-06
-7.674037672983778e-06
-1.0073256351031779e-07
-9.993295605097001e-06
1.9053947542806415e-06
-1.565022415789168e-05
-3.573911777061368e-07
-1.7450304083342464e-05
-3.247184058648455e-06
-1.783426761214407e-05
-5.846853992078216e-06
-2.1449362304472713e-05
-4.663951795008013e-06
-2.0567715470395062e-05
-5.290047017922968e-07
-2.0382582868567667e-05
-1.766299179354304e-07
-1.820288570113473e-05
-4.1882806113983636e-07
-1.8092057188824405e-05
2.5707831597122357e-06
-1.3212876389762435e-05
2.112056366761173e-07
-6.1854402930728665e-06
-3.823115454814909e-06
-5.6035068879035655e-06
-1.3457348858584083e-06
-3.8364492607062796e-06
-2.607446222546996e-07
-4.504683385351558e-06
-5.942117453365972e-07
-6.3240321246018415e-06
-1.3302187069693607e-06
-1.078429243975458e-05
-1.2921030319596002e-06
-9.289397615496116e-06
2.618339800320486e-06
-1.850230405792564e-06
7.3205324717687775e-06
-1.2194399835182402e-06
7.886217043445952e-06
7.589409089351177e-06
6.7683063090121125e-06
1.3213628525735207e-05
8.055684575741546e-06
1.7569917947518664e-05
5.606197183649898e-06
2.081340434074262e-05
4.867341203978473e-06
2.3474151519029717e-05
8.785686561184761e-07
2.2376728045305643e-05
1.2753765409919632e-06
1.6034051119607194e-05
2.698658752695175e-06
7.928556715239464e-06
-3.400552894547733e-07
0.0
0.0
0.0
0.0
0.0
0.0
0.0
0.0
0.0
0.0
0.0
0.0
0.0
0.0
0.0
0.0
0.0
0.0
0.0
0.0
0.0
0.0
0.0
0.0
0.0
0.0
0.0
0.0
0.0
0.0
0.0
0.0
0.0
-0.0
-3.8402670500018574e-05
-1.1482211047521517e-06
-3.790028472758774e-05
-8.039772272871355e-06
-3.0374555602967633e-05
-1.1121669830906928e-05
-2.5200693406355916e-05
-9.982331677793666e-06
-1.890371790218813e-05
-5.690126330513543e-06
-1.754394079680409e-05
-5.971816496697332e-06
-1.1833523744293037e-05
-6.098319915664197e-06
-1.0923938654991433e-05
-5.6537410572187276e-06
-7.347679994996573e-06
-5.855180353270484e-06
-5.785184136076194e-06
-9.939878306564335e-06
-5.166794515384447e-06
-1.321140129380606e-05
-5.914324673514832e-07
-1.2863119637116984e-05
-1.7628633655030814e-07
-1.7130442621328204e-05
-2.8563489219761525e-06
-1.8845827530110402e-05
-7.964986079406822e-06
-1.7393031744618633e-05
-1.105491535855746e-05
-1.678224844711315e-05
-1.1918646645774472e-05
-1.4354777118834405e-05
-1.7259330643928075e-05
-1.1110189563555088e-05
-2.1019015026191862e-05
-8.005219644088264e-06
-2.0762038095816888e-05
-8.68284858717636e-06
-1.6616207907664807e-05
-6.02234328708729e-06
-1.6559570318152254e-05
-4.150016878767985e-06
-1.2655718191458642e-05
-7.316586577204995e-06
-6.932148982218026e-06
-3.8131803277235373e-06
-8.167045941239956e-06
2.655503713460691e-06
-2.1414438353705513e-06
2.876718887675568e-06
-3.996534995369543e-06
2.9798585321967467e-06
-2.2157222221180503e-06
3.71782739943368e-06
9.155523539795376e-07
1.6489836324696242e-06
1.1804204026770909e-06
-4.560552609553816e-06
2.4632683906039304e-06
-2.969793071453153e-06
1.5903635348179618e-06
-4.773287544295316e-07
9.773154806954642e-07
-1.6378746123301623e-06
2.904566415009245e-06
-6.915378206138184e-07
2.386494754485908e-06
0.0
0.0
0.0
0.0
0.0
0.0
0.0
0.0
0.0
0.0
0.0
0.0
0.0
0.0
0.0
0.0
0.0
0.0
0.0
0.0
0.0
0.0
0.0
0.0
0.0
0.0
0.0
0.0
0.0
0.0
0.0
-0.0
-6.919298248801933e-06
-2.5227525894035384e-06
-2.901524047852191e-06
-4.783656654963499e-06
1.7652467467437917e-06
-1.6154082718705507e-06
1.7558843463630745e-06
8.220313076983886e-07
2.1240910855252742e-06
-2.5422284372668795e-06
3.193923704710345e-06
-5.414701827952103e-06
3.1779549502734495e-06
-5.804589813939429e-06
1.7558461472446722e-06
-5.39781134287544e-06
-1.2618988475730096e-06
-1.1135902038935958e-05
-2.465357088782224e-06
-1.4090903726550363e-05
-4.726363965887342e-06
-1.3833106859633509e-05
-6.060529441820525e-06
-1.4837939054333856e-05
-1.6669574190542308e-06
-1.8897445113421584e-05
1.2626005211517945e-06
-1.829106225819383e-05
6.845439063075172e-07
-1.5614513113285862e-05
-1.0859471884569579e-06
-1.3046891124216342e-05
1.7396897064068881e-06
-8.807422849240427e-06
4.906485126610124e-07
-6.00406967405953e-06
-1.6761927748254255e-06
-1.8976106572224311e-06
-4.899833544713893e-07
-4.176701328282864e-06
-1.1089902575597533e-06
-6.119502355079823e-06
-3.077257591970113e-06
-9.160248829198842e-06
-5.373293453918283e-06
-1.5732002705907765e-05
-3.1781175869840263e-06
-1.3836654531229678e-05
-7.819897714876224e-07
-5.988054985492357e-06
6.661494238044391e-06
-1.573744409521152e-06
1.125296145976424e-05
3.5615081248608666e-06
1.2125805461664554e-05
1.4114464695562048e-05
1.171403740732093e-05
1.6500018750563945e-05
8.853673937169959e-06
2.0499910643443395e-05
8.709068935187576e-06
2.4838142841522717e-05
4.7306867657986255e-06
2.3845530785763e-05
5.767881148015281e-06
1.778163651658759e-05
3.5542368875844945e-06
1.2326311699507415e-05
1.3239285356415252e-06
6.121948470249753e-06
-3.777484746231106e-07
0.0
0.0
0.0
0.0
0.0
0.0
0.0
0.0
0.0
0.0
0.0
0.0
0.0
0.0
0.0
0.0
0.0
0.0
0.0
0.0
0.0
0.0
0.0
0.0
0.0
0.0
0.0
0.0
0.0
-0.0
-3.459394088559571e-05
-5.515362822414591e-06
-3.0565321449854944e-05
-7.399623502409146e-06
-3.2767193869532976e-05
-9.609417580557146e-06
-2.6403866487398618e-05
-1.738300655624636e-05
-1.827564925933877e-05
-1.633870213503515e-05
-1.4100111610025443e-05
-1.2508967542095814e-05
-1.0456261058828642e-05
-7.627706876634806e-06
-7.030693249416089e-06
-8.68686520710202e-06
-2.841220002734765e-06
-6.156598168297122e-06
-3.5018254938124534e-06
-5.50242063178767e-06
1.4355570749324187e-06
-9.490593847223817e-06
1.9743922654857856e-06
-1.0946895820459628e-05
4.089858914519546e-06
-1.2093533032305947e-05
7.167345575038322e-06
-1.4901316541508574e-05
1.6280807654734227e-06
-1.2639905358160539e-05
-3.0260376389200504e-06
-1.2117205374797014e-05
-4.537617102917594e-06
-1.105161043597037e-05
-6.8780143199084005e-06
-8.894939198810707e-06
-1.05603393256073e-05
-6.597942614024096e-06
-1.630225136914482e-05
-5.8420201334347306e-06
-1.458783216947515e-05
-4.249061489033566e-06
-1.0990186702729369e-05
-3.2916868531720555e-06
-1.1901757885543642e-05
-5.355602092974088e-06
-7.876839719250557e-06
-7.333693217500823e-06
-8.486641923761632e-06
-7.225935226330916e-06
-7.6113896920384764e-06
-1.7568010576056772e-06
-5.6118090310661216e-06
1.6027753126188183e-07
-4.847310306819684e-06
8.488283076596046e-07
-2.021586136042642e-06
2.1547735320369296e-06
2.360961048337948e-06
3.1347287536424464e-06
1.8345100571320767e-06
1.840704069938165e-07
2.7804193364301737e-06
6.914108517116095e-07
4.629784147933443e-06
5.41111713393808e-06
4.394203215282067e-06
4.984825466877209e-06
2.153749832489797e-06
3.3237825747652108e-06
3.720582280082155e-06
1.7282628793376764e-06
3.750824352148249e-06
0.0
0.0
0.0
0.0
0.0
0.0
0.0
0.0
0.0
0.0
0.0
0.0
0.0
0.0
0.0
0.0
0.0
0.0
0.0
0.0
0.0
0.0
0.0
0.0
0.0
0.0
0.0
-0.0
-1.6069722810272374e-05
-3.463393146354855e-06
-1.0695682586619341e-05
-5.287238130656699e-06
-6.4091752394733636e-06
-3.8950538495332775e-06
-7.711206943792531e-07
-2.158586936420564e-06
2.080958908546419e-06
-1.0254787048463415e-07
1.343000378898488e-06
2.9916990515258983e-07
1.9736802465946294e-06
-2.8316021968017104e-06
2.9772752600744393e-06
-4.839052362650179e-06
2.734270741070389e-06
-4.961704687590929e-06
5.342609648386925e-07
-9.419777600658178e-06
-2.1735347681067418e-06
-1.1052361437311597e-05
-3.2012930246043413e-06
-6.974687794197004e-06
-6.119531866235174e-06
-7.395344410139041e-06
-3.928149617914151e-06
-1.0404213092009376e-05
-6.265613582229095e-07
-1.2639487581469422e-05
4.973083503840204e-07
-1.0052901158151132e-05
-8.761518219405917e-07
-7.299530041964749e-06
1.0679617563491565e-06
-6.945782916423102e-06
2.4868561727183294e-06
-6.106515983117955e-06
7.179662456307066e-07
-4.564154302240223e-06
-4.9475686325525765e-08
-4.7293135511952355e-06
4.290086505172076e-07
-7.1577094422217865e-06
-1.4653975058157143e-06
-9.260269735511826e-06
-1.8970868701822515e-06
-1.5829171612018382e-05
2.1928982560690995e-06
-1.4661270784019516e-05
-1.9265724056292532e-06
-1.0523516188145095e-05
3.6924147338167934e-06
-7.560739722790598e-06
1.0040019213525894e-05
2.450946663383578e-07
1.162685978367178e-05
7.488424623379429e-06
1.039052208960311e-05
1.1562918975991398e-05
1.1364100829487309e-05
1.7770170344477515e-05
7.712611179260112e-06
2.123073614265354e-05
5.514928394195991e-06
2.022934853013423e-05
6.23712354232844e-06
1.6763106195247635e-05
3.341169168630256e-06
1.562939890217449e-05
2.577875553350152e-06
1.0552105311232814e-05
1.3348183205829843e-06
6.180090352746446e-06
1.2332525937766852e-06
0.0
0.0
0.0
0.0
0.0
0.0
0.0
0.0
0.0
0.0
0.0
0.0
0.0
0.0
0.0
0.0
0.0
0.0
0.0
0.0
0.0
0.0
0.0
0.0
0.0
-0.0
-2.5289167814366957e-05
-2.340924781884725e-06
-2.60193342830538e-05
-7.1075068371837175e-06
-2.356841492510671e-05
-1.0140822342763386e-05
-1.9041548999821738e-05
-1.5691225403550797e-05
-1.535827720508356e-05
-1.983952953050033e-05
-1.1886316707468223e-05
-1.9745693000681157e-05
-8.57940759003438e-06
-1.630648396117963e-05
-4.246857722707541e-06
-1.2189365469746239e-05
-2.2035489852714235e-06
-9.084165966676452e-06
-1.769867529318496e-06
-4.045045023621777e-06
2.4625778334201994e-06
-4.848700982108863e-06
5.395860079887061e-06
-7.53129956674836e-06
7.634087551747268e-06
-1.0598492971540699e-05
9.427084506318826e-06
-1.0336174718295555e-05
7.275204417653203e-06
-1.0514680417317342e-05
5.541618334483243e-06
-8.194939074895509e-06
1.7478782659850994e-06
-4.9967739845142005e-06
2.0981314539589124e-06
-4.833443300161504e-06
5.23591854694282e-07
-4.356044362423145e-06
-3.7221713200627248e-06
-2.669677585668724e-06
-6.957784923713048e-06
-1.0585569853499894e-06
-7.783316899548601e-06
-4.0829571675908765e-06
-5.537339532758241e-06
-5.090983340783997e-06
-5.055375211570335e-06
-4.324629806132256e-06
-8.56012802087243e-06
-7.601205536474387e-06
-8.33297773060772e-06
-7.802659392832026e-06
-9.739451859402196e-06
-4.942848477931877e-06
-1.1941470926393823e-05
-3.81633703344895e-06
-5.631903518005455e-06
-1.0792871692777198e-06
-1.7849622549603578e-06
2.2130150810678048e-06
1.3220673230862565e-06
3.0097057519664904e-06
3.7252299191481784e-06
2.707768726500149e-06
4.137605081634743e-06
4.636261369915549e-06
4.132961882994683e-06
8.9083063026272e-06
3.9508952107027315e-06
8.588022911322204e-06
5.09865574280775e-06
9.20124681765004e-06
6.499333724780665e-06
8.418593068033825e-06
4.778370545894418e-06
6.376263095147333e-06
4.709593561420789e-06
0.0
0.0
0.0
0.0
0.0
0.0
0.0
0.0
0.0
0.0
0.0
0.0
0.0
0.0
0.0
0.0
0.0
0.0
0.0
0.0
0.0
0.0
0.0
-0.0
-1.4214327526963706e-05
-4.443596959450776e-06
-1.4899522155843898e-05
-7.982072597642305e-06
-1.1083756073810397e-05
-9.648814357402616e-06
-4.0051116063206095e-06
-7.448866483178899e-06
-2.589619855341301e-07
-5.780337679607093e-06
2.6724579047576034e-07
-4.095233286522873e-06
-6.192097006506165e-07
-2.5500649466959024e-06
4.824909450261239e-07
-6.230930881729897e-06
5.307915366977794e-07
-6.05453990265387e-06
-4.964610057649246e-07
-3.7721766322159544e-06
-1.2899341521088864e-06
-8.545568965360368e-06
-3.4044220540531925e-06
-8.800431266048068e-06
-3.580797935310399e-06
-4.954223165300032e-06
-2.374187581358522e-06
-6.3545722331471555e-06
-1.3548258625442965e-06
-7.055491736215662e-06
-6.782648318719568e-07
-4.220470807984923e-06
2.2802706000044834e-06
-6.892389348349685e-06
2.6504306880290016e-06
-5.056102340515145e-06
8.413745256313817e-07
-2.902464254441491e-06
-5.980954002834222e-07
-2.5930711460984997e-06
2.9971750233158564e-07
-1.5642143778990975e-07
1.372476758410675e-07
-3.0550516670085795e-06
-2.9389209276987024e-06
-7.4749039462394595e-06
-3.192551531700821e-06
-7.491369102091491e-06
-4.214950252739477e-06
-1.09986461821974e-05
-1.6722948089956208e-07
-1.444601378192539e-05
-7.593471946319976e-07
-1.4906438177610777e-05
-6.002997696247132e-07
-1.3900146668239586e-05
5.043992803722313e-06
-1.1120668050065459e-05
8.108187911426883e-06
-4.348127009282692e-06
1.0468451169452567e-05
3.264082828113838e-06
1.1721442145067902e-05
8.290440857104602e-06
8.525110982625734e-06
1.6995550836368098e-05
4.667229019231751e-06
1.7678946558946498e-05
2.724080603485578e-06
1.765308390595049e-05
2.23894546273768e-06
1.631058638866035e-05
1.8348116535112958e-06
1.4684398667434086e-05
1.5138846344909883e-06
8.596120966057394e-06
1.9045166648997061e-06
4.127274412239709e-06
2.6041729394647002e-06
0.0
0.0
0.0
0.0
0.0
0.0
0.0
0.0
0.0
0.0
0.0
0.0
0.0
0.0
0.0
0.0
0.0
0.0
0.0
0.0
0.0
-0.0
-1.1715236665807571e-05
6.405678368943511e-07
-1.3664176493287258e-05
-3.2738459473120425e-06
-1.56489526946029e-05
-9.642712252007844e-06
-1.361672867657085e-05
-1.1415413633781837e-05
-1.299139351090016e-05
-1.635778480244706e-05
-8.562716665293259e-06
-2.087597626762928e-05
-7.198976308702905e-06
-1.8838189911326612e-05
-5.3669795403511616e-06
-1.6698892335844456e-05
-2.3075795911416323e-06
-1.5125653347107486e-05
-3.6106448563461094e-06
-1.2243511793517454e-05
-2.002125747849121e-06
-7.928339929461218e-06
2.259312541014855e-06
-5.18376577307589e-06
7.0284210659241095e-06
-8.094610606801269e-06
5.00451985805019e-06
-8.159551876569316e-06
7.63974614840802e-06
-5.932869643936577e-06
9.10321405309912e-06
-5.902451381016927e-06
6.991733953261398e-06
-5.265458353602481e-06
6.508385289286107e-06
-1.6788496145887003e-06
6.128936507330403e-06
-4.35977388480341e-06
6.8816388924692575e-06
-4.775822593360403e-06
2.0782083128439836e-06
7.713755558850684e-07
-2.7998889294630827e-06
1.2483330728489935e-06
-3.756733654375074e-06
-1.0684729813908034e-06
-5.595301898885781e-06