# vtk DataFile Version 2.0
Acoustic field
ASCII
DATASET STRUCTURED_POINTS
DIMENSIONS 102 102 1
ORIGIN -0.01 -0.01 0
SPACING 0.0002 0.0002 1
POINT_DATA 10404
SCALARS pressure float 1
LOOKUP_TABLE default
0.0
0.0
0.0
0.0
0.0
0.0
0.0
0.0
0.0
0.0
0.0
0.0
0.0
0.0
0.0
0.0
0.0
0.0
0.0
0.0
0.0
0.0
0.0
0.0
0.0
0.0
0.0
0.0
0.0
0.0
0.0
0.0
0.0
0.0
0.0
0.0
0.0
0.0
0.0
0.0
0.0
-0.0
0.0
-0.0
0.0
-0.0
0.0
-0.0
0.0
-0.0
-2.4997944739574623e-06
0.0
0.0
0.0
0.0
0.0
0.0
0.0
0.0
0.0
0.0
0.0
0.0
0.0
0.0
0.0
0.0
0.0
0.0
0.0
0.0
0.0
0.0
0.0
0.0
0.0
0.0
0.0
0.0
0.0
0.0
0.0
0.0
0.0
0.0
0.0
0.0
0.0
0.0
0.0
0.0
0.0
0.0
0.0
0.0
0.0
0.0
0.0
0.0
0.0
0.0
0.0
0.0
0.0
0.0
0.0
0.0
0.0
0.0
0.0
0.0
0.0
0.0
0.0
0.0
0.0
0.0
0.0
0.0
0.0
0.0
0.0
0.0
0.0
0.0
0.0
0.0
0.0
0.0
0.0
0.0
0.0
0.0
0.0
0.0
0.0
0.0
0.0
0.0
0.0
0.0
0.0
0.0
-5.911562115935754e-06
3.8891670346785613e-07
-6.102542531296015e-06
5.029731858636379e-07
-6.829016814105347e-06
1.3006531525695367e-06
-7.5146599996441614e-06
1.9158824912983295e-06
-5.433999493790604e-06
2.5015149145696006e-06
-2.9225115237790233e-06
3.7450550781719196e-06
-1.0030591284362153e-06
4.332863905081457e-06
8.875438186194477e-07
1.6780677661756698e-06
2.6304255795581676e-06
1.7876629724942956e-06
1.9156858388924197e-06
-0.0
0.0
-0.0
0.0
0.0
0.0
0.0
0.0
0.0
0.0
0.0
0.0
0.0
0.0
0.0
0.0
0.0
0.0
0.0
0.0
0.0
0.0
0.0
0.0
0.0
0.0
0.0
0.0
0.0
0.0
0.0
0.0
0.0
0.0
0.0
0.0
0.0
0.0
0.0
0.0
0.0
0.0
0.0
0.0
0.0
0.0
0.0
0.0
0.0
0.0
0.0
0.0
0.0
0.0
0.0
0.0
0.0
0.0
0.0
0.0
0.0
0.0
0.0
0.0
0.0
0.0
0.0
0.0
0.0
0.0
0.0
0.0
0.0
0.0
0.0
0.0
0.0
0.0
1.3145168201114917e-06
1.7852220494479298e-06
-1.910654522635705e-08
2.4529239825142873e-06
8.904646360752339e-07
-1.3970722840679734e-07
1.3783877053042837e-06
1.0876258014814665e-06
8.859322032397643e-08
1.2464982814671974e-07
-1.3129774623262773e-06
6.198204379426895e-07
9.043751022502515e-07
1.2403983361870388e-06
2.845175970571305e-07
-7.969539142116344e-07
-1.1272576202880505e-06
2.4405483778536015e-07
1.5881202443307901e-06
-5.682827471502142e-07
3.600708980663258e-06
-1.8685674573102402e-06
2.502426892906146e-06
-2.285086108946227e-06
1.8469782892300831e-06
-3.1586917010638237e-06
1.6257625439758575e-06
-5.975756733125339e-07
0.0
0.0
0.0
0.0
0.0
0.0
0.0
0.0
0.0
0.0
0.0
0.0
0.0
0.0
0.0
0.0
0.0
0.0
0.0
0.0
0.0
0.0
0.0
0.0
0.0
0.0
0.0
0.0
0.0
0.0
0.0
0.0
0.0
0.0
0.0
0.0
0.0
0.0
0.0
0.0
0.0
0.0
0.0
0.0
0.0
0.0
0.0
0.0
0.0
0.0
0.0
0.0
0.0
0.0
0.0
0.0
0.0
0.0
0.0
0.0
0.0
0.0
0.0
0.0
0.0
0.0
0.0
0.0
0.0
0.0
0.0
-9.934144411902247e-08
1.2833570425501467e-06
1.1193267063884045e-06
1.0589200077314767e-06
1.3916760535630647e-06
1.2991707165611916e-06
-5.500800412505005e-07
-1.448446494070602e-06
-4.9554116239820216e-06
-7.271804834988678e-07
-7.660972315380133e-06
-6.597482922996911e-08
-9.321215686376387e-06
-1.0365744507966902e-06
-9.642672138558287e-06
1.4278678643776556e-06
-6.392065100978211e-06
4.582240553418929e-06
-4.441939424946281e-06
4.189263810046469e-06
-1.2539118878886341e-06
2.5691655281462803e-06
1.8775743877310085e-06
1.5104274419412163e-06
4.0511828736211103e-07
8.578227810986467e-07
1.8613917483087122e-06
4.4601099072275696e-07
3.7523376970772506e-06
7.6029740142344e-07
3.159757945368537e-06
3.064722433958955e-08
3.185879808098405e-06
-5.900215841200589e-07
2.210045622131348e-06
-0.0
0.0
0.0
0.0
0.0
0.0
0.0
0.0
0.0
0.0
0.0
0.0
0.0
0.0
0.0
0.0
0.0
0.0
0.0
0.0
0.0
0.0
0.0
0.0
0.0
0.0
0.0
0.0
0.0
0.0
0.0
0.0
0.0
0.0
0.0
0.0
0.0
0.0
0.0
0.0
0.0
0.0
0.0
0.0
0.0
0.0
0.0
0.0
0.0
0.0
0.0
0.0
0.0
0.0
0.0
0.0
0.0
0.0
0.0
0.0
0.0
0.0
0.0
0.0
0.0
-1.0618783648631827e-06
-3.0066366669551994e-06
-7.743990850999621e-07
-2.3752219721578097e-06
-7.195550017994304e-07
-9.511398993486995e-07
5.362533423313185e-07
-1.5849532332666565e-06
2.8875387214550325e-06
8.694487075100636e-07
6.981782174489736e-07
1.3367401889695088e-06
1.0208281987599792e-06
1.5763611753130423e-06
1.8075318960960871e-06
4.443264823229005e-07
3.1930614489540237e-06
6.914337859788051e-07
2.0904678077069074e-06
-6.636455134947751e-09
1.5761416596120128e-07
7.436113561693942e-07
1.5119179974885532e-07
1.020723993734469e-06
-1.8643783145011578e-06
2.346081183020465e-06
-4.965446407932838e-06
2.2275419507206274e-06
-4.360280052553254e-06
5.476748646012731e-06
-2.913545402090936e-06
3.5605191720312853e-06
-3.247875681601684e-06
2.692765947526736e-06
3.1525079785246354e-07
2.2391073436972012e-06
1.9169794119761276e-07
3.9331401493131513e-07
1.8126021109627347e-06
0.0
-0.0
0.0
0.0
0.0
0.0
0.0
0.0
0.0
0.0
0.0
0.0
0.0
0.0
0.0
0.0
0.0
0.0
0.0
0.0
0.0
0.0
0.0
0.0
0.0
0.0
0.0
0.0
0.0
0.0
0.0
0.0
0.0
0.0
0.0
0.0
0.0
0.0
0.0
0.0
0.0
0.0
0.0
0.0
0.0
0.0
0.0
0.0
0.0
0.0
0.0
0.0
0.0
0.0
0.0
0.0
0.0
0.0
0.0
0.0
0.0
3.3602447454723043e-06
-1.2005697360492722e-06
1.8809420457632125e-06
6.205261165664959e-07
-7.677250085796902e-07
1.7656984452474821e-06
1.2878630666160965e-06
1.7349724621400594e-06
-2.3964506485885726e-07
5.268851366942914e-07
-6.38447881611166e-07
-7.750909627456831e-07
-2.7705648350385292e-06
-9.124525539840641e-07
-4.97203086377818e-06
-1.033620065143872e-06
-6.446179488471585e-06
6.933986712758685e-07
-7.452038365023223e-06
1.854353348089894e-06
-4.855128817300889e-06
4.9974856826657505e-06
-1.6337708403044275e-06
4.654764626261707e-06
8.330877457632045e-07
3.906211245512858e-06
2.956040178718236e-06
4.349269929138818e-06
3.112394976465998e-06
3.2888235537293707e-06
3.2671271585775084e-06
1.526679038228839e-07
4.070662795934894e-06
-1.6862742622129018e-06
3.3415670435423665e-06
-1.9927120588360074e-06
3.972426265134221e-06
-2.4694334511576264e-06
2.634654490831954e-06
-3.204272464858849e-07
1.4885293375443227e-06
3.252941066089382e-06
-1.317239278708035e-06
-0.0
0.0
0.0
0.0
0.0
0.0
0.0
0.0
0.0
0.0
0.0
0.0
0.0
0.0
0.0
0.0
0.0
0.0
0.0
0.0
0.0
0.0
0.0
0.0
0.0
0.0
0.0
0.0
0.0
0.0
0.0
0.0
0.0
0.0
0.0
0.0
0.0
0.0
0.0
0.0
0.0
0.0
0.0
0.0
0.0
0.0
0.0
0.0
0.0
0.0
0.0
0.0
0.0
0.0
0.0
0.0
0.0
-6.374199334073706e-06
-2.5275323459657292e-06
-4.3133026722994365e-06
-1.5975612972410614e-06
-9.137802836841615e-07
-2.845656975421201e-06
-1.840571782568121e-07
-1.573156988108655e-06
7.29652742443018e-07
-1.214340300254331e-06
1.0334247318651323e-06
-2.2164865349155066e-06
2.6904211922544863e-06
8.597662748876108e-07
2.2324377330581035e-06
-6.722468398542545e-07
3.019368431848462e-06
3.6703303908083694e-07
4.812740454275993e-06
6.453265508684353e-07
5.3035013458943756e-06
1.6270906845935268e-07
3.6701588761448667e-06
1.8638936517780658e-06
1.601059349192149e-06
1.2664151186120455e-06
1.5570886398803047e-06
1.9663397595060895e-06
-8.454608047681558e-07
3.3719646109049563e-06
-2.5110670449917492e-06
3.3581456477016785e-06
-1.2055045428483826e-06
4.388660261412056e-06
-3.6684038542551967e-06
4.106358596723461e-06
-4.780104379682387e-06
4.209765169189549e-06
-1.91736518122927e-06
4.442367433276024e-07
-1.4270656135815455e-06
5.012914762737585e-07
-3.707776221910676e-07
-7.188188924218124e-08
1.3415839827011156e-06
-4.4602748778344107e-07
2.35707121022544e-06
0.0
-0.0
0.0
0.0
0.0
0.0
0.0
0.0
0.0
0.0
0.0
0.0
0.0
0.0
0.0
0.0
0.0
0.0
0.0
0.0
0.0
0.0
0.0
0.0
0.0
0.0
0.0
0.0
0.0
0.0
0.0
0.0
0.0
0.0
0.0
0.0
0.0
0.0
0.0
0.0
0.0
0.0
0.0
0.0
0.0
0.0
0.0
0.0
0.0
0.0
0.0
0.0
0.0
1.1695359747204655e-06
3.2381133811125623e-06
2.230911403549048e-06
2.6996751609646243e-06
1.6628564351488462e-06
9.143224125844394e-07
8.262867027778862e-08
1.622835902117621e-06
-7.065815338125298e-08
5.389760368879871e-07
-6.792218997907828e-07
2.961904959674884e-07
3.3004287549625565e-07
3.1191524257540595e-07
-2.3673556005527448e-06
-5.418375982601791e-07
-4.499931574464475e-06
-1.403057058967219e-06
-6.138499242820437e-06
-1.471924038426583e-06
-4.792347888160379e-06
-6.005115677631052e-07
-5.021934863990099e-06
9.491517926368722e-07
-5.528782147428884e-06
4.218435452019265e-06
-2.6704301354571636e-06
2.721393404547999e-06
-1.0254258997133344e-07
1.415466040456968e-06
2.6516636342229666e-06
2.7839035684993365e-06
2.3955111527465706e-06
1.2238958701288603e-06
1.4839171864156801e-06
3.1086528846735846e-07
3.455745508073093e-06
-2.1861582416662144e-07
4.8029686323946065e-06
-1.2363035107688556e-06
1.9726927583919534e-06
-1.7084125255787152e-06
2.3117155889523687e-06
-2.195560814432173e-06
-1.335301348485418e-06
9.207232684429441e-07
-1.5224270165454818e-06
3.3232260269810107e-06
-8.368106220826994e-08
-3.181143361719186e-07
-3.3796102467361016e-06
0.0
0.0
0.0
0.0
0.0
0.0
0.0
0.0
0.0
0.0
0.0
0.0
0.0
0.0
0.0
0.0
0.0
0.0
0.0
0.0
0.0
0.0
0.0
0.0
0.0
0.0
0.0
0.0
0.0
0.0
0.0
0.0
0.0
0.0
0.0
0.0
0.0
0.0
0.0
0.0
0.0
0.0
0.0
0.0
0.0
0.0
0.0
0.0
-0.0
-2.20974731674085e-06
2.280757793104985e-06
-3.4817564331327666e-06
-6.588148029603698e-07
-3.6576748393932156e-06
-1.0919431418963374e-06
-4.542858072657569e-06
-2.166022350698367e-06
-3.1723309780538014e-06
-1.0443554072317707e-06
-8.565603901383755e-07
-3.096487838652438e-06
1.8701004874548386e-06
-2.5720361891223827e-06
3.325964408483387e-06
-2.7042864322400017e-06
5.501639344076325e-06
4.806060359575341e-07
5.245284992335833e-06
1.2143102519792173e-06
5.154435372855284e-06
1.3276958640811496e-06
6.3590997143404796e-06
1.7682816801373459e-06
6.10858879421889e-06
1.4667599952726249e-06
5.718878490313891e-06
1.8315215939234536e-06
3.735419599200966e-06
1.6603462173594e-06
-4.17444807086792e-07
4.224017223525644e-06
-3.104963589623661e-06
4.950181397437285e-06
-4.046405935808545e-06
5.351443319331616e-06
-5.0593452956424996e-06
7.199329255821867e-06
-4.4038181160324525e-06
7.114790142482382e-06
-2.8006649350305915e-06
5.154923894804842e-06
8.228804681395572e-07
2.386677838793904e-07
1.4441430328530629e-06
-8.632072523995162e-07
2.901122403472113e-07
-2.6090627666641695e-06
4.3624512687762164e-07
-3.6782866625908856e-06
9.650558649371624e-07
-1.025261863213543e-06
2.000005702480055e-06
-5.787080208610314e-07
1.6796245406375882e-06
-0.0
0.0
0.0
0.0
0.0
0.0
0.0
0.0
0.0
0.0
0.0
0.0
0.0
0.0
0.0
0.0
0.0
0.0
0.0
0.0
0.0
0.0
0.0
0.0
0.0
0.0
0.0
0.0
0.0
0.0
0.0
0.0
0.0
0.0
0.0
0.0
0.0
0.0
0.0
0.0
0.0
0.0
0.0
0.0
0.0
0.0
3.0066302563453076e-06
6.670359572857159e-07
2.611201114792627e-06
1.3191756141430711e-06
1.4069179305649067e-06
3.4100352795174077e-06
4.518704016994052e-06
2.546607571209316e-06
3.86137757952932e-06
2.2606234391137155e-06
3.9983303183832235e-06
1.113288448896102e-06
1.3281404915442488e-06
6.82804997547608e-07
3.279115794064462e-07
3.1389007874011423e-07
-1.1117308793326364e-07
-1.6342937029286227e-06
-1.6815328809705805e-06
-3.0683475832596984e-06
-2.6312900413324218e-06
-4.168407063096103e-06
-7.376721353509627e-07
-5.697700593253487e-06
1.3601837663575554e-07
-5.001173740322212e-06
-1.619570087262963e-07
-3.370229250710926e-06
2.3286773544239943e-06
-2.3970534817821574e-06
2.7759314631232787e-06
3.663795594612614e-07
3.037679429001357e-06
3.0622553985881764e-06
4.206278475037715e-06
5.142624314726301e-06
2.950171613081569e-06
5.637070666445872e-06
1.253205513938418e-06
5.983375945703254e-06
1.3460879428643347e-06
5.454283861914605e-06
6.212301914798788e-08
3.2215984935217275e-06
-1.0329147479005497e-06
2.4337351447423254e-06
-1.7731886634352727e-06
-3.8234820787160367e-07
2.716118727032741e-07
-2.767586166377117e-06
2.89088047976351e-06
-2.1961767108371187e-06
-2.223995813083532e-06
-3.447091387558907e-06
-7.599658243591667e-07
-1.189112089151482e-06
2.6414483763627e-06
0.0
0.0
0.0
0.0
0.0
0.0
0.0
0.0
0.0
0.0
0.0
0.0
0.0
0.0
0.0
0.0
0.0
0.0
0.0
0.0
0.0
0.0
0.0
0.0
0.0
0.0
0.0
0.0
0.0
0.0
0.0
0.0
0.0
0.0
0.0
0.0
0.0
0.0
0.0
0.0
0.0
0.0
0.0
4.0336671808205005e-06
-1.1717799120242778e-06
2.0350191584400995e-06
-9.477774032574484e-07
3.4519597088785935e-06
-2.1385410804076324e-06
-3.9017228612568035e-07
-3.7601514738790873e-06
-1.0537670350522377e-06
-3.5112069907742886e-06
-2.716952522824233e-06
-4.580197111332898e-06
-3.016083618925338e-06
-2.3321097844600672e-06
-3.4518653906455094e-06
-3.4228044371468107e-07
-3.5025449223910633e-06
2.287778028879127e-06
-2.011096004953755e-06
2.895656419779931e-06
-1.693959726663394e-06
3.1345207255092116e-06
-1.3176834895139382e-07
6.316960086849121e-06
-4.6182980789498993e-07
6.984126331733896e-06
-4.541449184190224e-07
8.011842599991855e-06
2.277928149645307e-06
7.52690723604278e-06
1.782130175725303e-06
4.421048176479443e-06
2.203235603358262e-06
2.9040000985872837e-06
5.061496352388426e-06
-2.1267900465695668e-06
5.727399483809185e-06
-5.026821761668574e-06
7.487394951085622e-06
-5.164810942360354e-06
7.166668485158493e-06
-5.771758524250895e-06
8.677339868507807e-06
-3.504283596183144e-06
6.004415430172055e-06
1.5229778312418555e-06
-4.125353112941641e-07
4.87924373900372e-06
-4.898993179909261e-06
3.2189879273288584e-06
-6.073999625253198e-06
4.870155816434799e-06
-7.012941720653553e-06
5.104026030977294e-06
-4.423990193175074e-06
2.7233234537597666e-06
-5.34305633887952e-06
1.4358960262963742e-06
-1.9464228280643477e-06
8.939147524348793e-07
-0.0
-0.0
0.0
0.0
0.0
0.0
0.0
0.0
0.0
0.0
0.0
0.0
0.0
0.0
0.0
0.0
0.0
0.0
0.0
0.0
0.0
0.0
0.0
0.0
0.0
0.0
0.0
0.0
0.0
0.0
0.0
0.0
0.0
0.0
0.0
0.0
0.0
0.0
0.0
0.0
0.0
1.1072498018023347e-06
-1.4651125410287644e-07
-5.840582814225497e-07
1.6853636686916802e-06
7.222818645067889e-07
3.958424004837994e-06
3.1167324650013113e-06
3.0509701386691628e-06
2.291113596422317e-06
4.3232779504717444e-06
2.023797528039722e-06
3.592297583954188e-06
8.569196286804082e-07
1.623182483874099e-06
4.0186843984789265e-06
1.4049542252135533e-06
2.2548381422894376e-06
-4.417621416980867e-07
2.349854401932821e-06
7.421493645353874e-07
-1.9484796533650817e-07
-1.6824032024712535e-06
-3.5218594151992755e-06
-2.7309878413594126e-06
-4.1898447044459184e-06
-2.514137324829287e-06
-4.05285367790443e-06
-2.0632389770991366e-06
-2.759119768370123e-06
-3.6446361525328123e-07
-2.957937871400319e-06
-5.769175196950214e-07
-1.7479273784030357e-06
2.7367590412773954e-06
5.152606597706923e-07
3.3074543593630487e-06
1.7079134072776121e-06
8.226730855320055e-07
3.967347659931268e-06
-1.5445634077844086e-06
3.14997938063809e-06
1.282697216290179e-07
3.275809371822169e-06
1.0450362491679502e-06
3.4720729002011933e-06
-1.0850755379368092e-07
1.2404729605513483e-06
2.563589992058007e-06
1.2667002959952826e-06
9.50495255634837e-07
2.6822721002755494e-07
-5.695171868362839e-07
-2.280263329490253e-06
1.8546989936326284e-06
-4.079300969150206e-06
-5.286715771772356e-07
-5.944627699300118e-07
-2.7326348696090028e-06
-3.2294063895356477e-06
3.1498238717107214e-06
-8.067649296723689e-07
3.1061697980833996e-07
-2.3527587449954975e-06
0.0
0.0
0.0
0.0
0.0
0.0
0.0
0.0
0.0
0.0
0.0
0.0
0.0
0.0
0.0
0.0
0.0
0.0
0.0
0.0
0.0
0.0
0.0
0.0
0.0
0.0
0.0
0.0
0.0
0.0
0.0
0.0
0.0
0.0
0.0
0.0
0.0
0.0
2.0157368261786392e-06
3.483063820022208e-07
3.2719482239962044e-06
3.016208751882924e-07
8.376362686056438e-07
-9.616948774530775e-07
2.1121549021780298e-06
-4.080461862559947e-06
3.7115057362229266e-07
-3.1256928086316017e-06
-9.963308018700878e-07
-4.485689802288526e-06
-3.952104746617135e-06
-5.704821278242481e-06
-3.420144594950647e-06
-3.519918287232073e-06
-3.0689968354072346e-06
-1.8048372892952997e-06
-2.7475995264734024e-06
1.7515968963113848e-06
-1.9847937371262575e-06
3.270730550610953e-06
-2.348132633678891e-07
4.4663357095226445e-06
-3.85184485337709e-07
6.2900056909338886e-06
7.456427534964091e-07
7.083613863390158e-06
2.188435450304545e-06
8.501504050548029e-06
1.8850892547120114e-06
7.610842863786088e-06
4.168358922916232e-07
7.488398066919739e-06
2.754907992107944e-06
5.103733400758683e-06
4.747117171825384e-06
6.132570410489671e-07
6.97773433077399e-06
-1.4805214928912916e-06
6.416259720359479e-06
-3.1683250408515574e-06
5.6646218824979126e-06
-1.8046513009114424e-06
5.933263751830427e-06
-3.944357226143939e-06
3.91642546573541e-06
8.182736437555612e-07
-9.526707247899291e-07
3.7555988146713107e-06
-5.40276716678515e-06
3.543734673862974e-06
-4.536996505711877e-06
6.523499268108994e-06
-7.78163554333278e-06
7.075210195043035e-06
-6.878173738104042e-06
3.955061972170687e-06
-4.088809549559852e-06
2.457655677578196e-06
-4.147941773694835e-06
8.698677193409694e-07
-1.5345599736402443e-06
-1.421570316668217e-06
-5.265130681358014e-06
-0.0
0.0
0.0
0.0
0.0
0.0
0.0
0.0
0.0
0.0
0.0
0.0
0.0
0.0
0.0
0.0
0.0
0.0
0.0
0.0
0.0
0.0
0.0
0.0
0.0
0.0
0.0
0.0
0.0
0.0
0.0
0.0
0.0
0.0
0.0
0.0
2.226781129026318e-06
-4.096636121464502e-07
1.088157808050089e-06
1.377563310953994e-07
1.5532897101234482e-07
2.988632253532362e-06
1.243910195182673e-06
5.123262218934659e-06
2.038192813932213e-06
5.297889355302853e-06
1.3569286075353254e-06
3.7479991809768864e-06
1.2530856099933862e-06
2.3379332644141424e-06
1.703744066791269e-06
1.1332298656000244e-06
2.362356029018951e-06
2.168261220585222e-06
2.948455925128094e-06
1.0611595691267437e-06
2.058132248167441e-06
1.5220877509039184e-06
2.2560862915923096e-06
-4.1699381137481257e-08
-7.024585335886575e-08
-1.6180754788748017e-06
-2.059660687761618e-06
-1.7915940643353245e-06
-2.1802819054624135e-06
-1.2040961308502152e-06
2.335496417500083e-07
-2.183252212961318e-06
9.368646521782101e-07
-1.142491192179301e-06
1.6551526805329103e-06
1.1108277189468176e-06
1.5171864439197909e-06
8.605552528172345e-07
2.7532947822485753e-06
1.7381667082107228e-06
6.04940914982018e-06
1.2573796669287493e-06
5.058571282794718e-06
-2.97983805102461e-08
5.05283901930888e-06
-1.9115957526890802e-06
3.722777027996998e-06
-1.745882910004032e-06
1.2014839489590527e-06
2.943538977740142e-06
-9.915677576136912e-07
3.4859888421193564e-06
6.549883015991699e-07
1.4958073962589965e-06
-3.411499508456499e-06
2.4771599921451996e-06
-5.583818466371417e-06
8.549906189978719e-07
-3.173547329086463e-06
-8.611125691518122e-07
-2.2355007404904145e-06
1.3583741478199248e-06
-3.976850689529662e-06
-1.2307955445738706e-06
-1.5371942880235821e-06
-3.4799513958010404e-06
-3.492214196566946e-06
0.0
0.0
0.0
0.0
0.0
0.0
0.0
0.0
0.0
0.0
0.0
0.0
0.0
0.0
0.0
0.0
0.0
0.0
0.0
0.0
0.0
0.0
0.0
0.0
0.0
0.0
0.0
0.0
0.0
0.0
0.0
0.0
0.0
0.0
-1.5634369496147607e-06
-3.289797383291246e-07
1.437469138526379e-06
1.591347643864238e-06
4.8405721381827866e-06
1.9104673942618453e-06
2.0356583505764527e-06
3.991597927943683e-07
3.7895324454354352e-06
-3.244513176323481e-06
3.821772550754305e-06
-4.152890068613365e-06
-1.5731409827411425e-07
-4.300216214588415e-06
-3.1819457782713616e-06
-3.1406042245103654e-06
-3.3729630252784538e-06
-2.9932638335426616e-06
-2.4547604754587485e-06
-7.693447477086052e-07
-3.0861645249397266e-06
1.995260209627076e-06
-8.216694395451549e-07
1.6981531454550787e-06
6.77969185237434e-07
4.025768529353183e-06
9.604964970982237e-08
6.408890025139858e-06
7.608215072594116e-08
7.92490959148602e-06
2.831887636545975e-06
8.626974838748107e-06
3.0436882529918946e-06
9.273372741169926e-06
8.552718182690939e-07
8.71525377037151e-06
2.577110651606049e-06
4.325285830751449e-06
6.473764290162139e-06
1.7112161931530053e-06
7.949697314584667e-06
9.754794782769661e-07
6.647627354234191e-06
3.4682641606290767e-07
3.932703127276583e-06
7.885195260344417e-07
3.1048791991698413e-06
8.999982994058284e-07
8.679478715416157e-07
1.257055727595818e-06
-3.3108449879625064e-06
2.8811782711993294e-06
-4.999964745807073e-06
2.4082821043618056e-06
-4.331411847156749e-06
2.632517379431952e-06
-5.034984776245166e-06
7.717355264127613e-06
-6.1458144438326525e-06
2.650039476168849e-06
-7.398726675346188e-06
7.61107309722566e-08
-4.642056555813151e-06
1.4388487867710658e-06
-2.356588160177391e-06
1.5667270630386757e-06
-4.528130865740519e-07
-8.834406571065896e-08
-2.32346905233666e-06
0.0
0.0
0.0
0.0
0.0
0.0
0.0
0.0
0.0
0.0
0.0
0.0
0.0
0.0
0.0
0.0
0.0
0.0
0.0
0.0
0.0
0.0
0.0
0.0
0.0
0.0
0.0
0.0
0.0
0.0
0.0
0.0
2.9863810164587307e-06
9.151687335950515e-07
3.8345427061191614e-06
2.328112177057786e-07
2.650293336118503e-06
-1.1593767891778029e-06
1.6694219640550793e-06
-9.315489114471421e-08
1.3375414450868878e-06
1.990870305731699e-06
3.0352425763402193e-06
3.0825395964642484e-06
6.795955147832347e-07
2.4659555846404624e-06
7.75601296514515e-07
1.6504979129116374e-06
2.6454241504599963e-06
-1.9449465534336158e-07
2.2680204215783253e-06
1.575965819354717e-06
-3.418219854114495e-08
9.110435237009377e-07
2.23106336409086e-06
-1.0220246653154927e-07
2.6741013594109e-06
-1.021237957442265e-06
2.543483952399689e-06
-1.5043035966755673e-06
-8.733707333004194e-07
-1.2888485179689576e-06
-1.70389348506935e-06
-1.2807353163418183e-06
1.5120743510655596e-06
-3.379296291199255e-06
4.78227252970833e-07
-2.684985788762814e-06
1.5214171239016085e-06
-5.449714547922454e-07
3.0362824189420785e-06
4.210785554040855e-07
3.4897747799416797e-06
2.0750473006122643e-06
2.176623911957354e-06
2.6844522313363364e-06
1.5745348961375352e-06
1.699649974033313e-06
4.687860376282403e-06
-4.1367646578688643e-07
7.3460393474541725e-06
-1.3673515993017857e-06
5.853076031823558e-06
-1.212340923774803e-08
1.3732167842882298e-06
1.0581430226639754e-06
-9.262652588246649e-07
-1.2465891766959032e-06
-2.8811129800625863e-06
-1.0578158702016407e-06
-5.768031849239652e-06
2.4811964687880485e-06
-5.905899479240442e-06
-1.005429506262919e-06
-5.066020229261141e-06
-1.0009329836580935e-07
-6.085255554537137e-06
-1.7911493753869382e-06
-6.00312100811984e-06
-2.8634374797560215e-06
-4.985520839824642e-06
-2.1421428100916103e-06
-7.918925838685381e-06
0.0
0.0
0.0
0.0
0.0
0.0
0.0
0.0
0.0
0.0
0.0
0.0
0.0
0.0
0.0
0.0
0.0
0.0
0.0
0.0
0.0
0.0
0.0
0.0
0.0
0.0
0.0
0.0
0.0
0.0
-4.704675276558209e-06
1.0251014984921118e-06
-1.4139481102524363e-06
-3.069343525426994e-07
1.1651235311799445e-06
5.400170503527745e-07
3.552051298923984e-06
4.2814772753532736e-07
2.0713886348225353e-06
4.331086450714963e-07
3.876221781937019e-06
-2.1843382621813854e-06
4.823021531794149e-06
-2.9368726651052566e-06
8.484267342699525e-07
-3.6936378909775117e-06
-2.558739819833103e-07
-3.6291119445915045e-06
-1.0532310258268915e-06
-3.3729227664563247e-06
-2.020115721871274e-06
-3.2324979098158874e-06
-1.629633628160194e-06
-1.4308775572964748e-06
-1.0926880896006963e-06
4.4976109440285376e-07
-3.0489066076757515e-07
1.7368756885502002e-06
9.707544944261992e-07
3.887603603323041e-06
1.7339198302594963e-06
7.474996781539605e-06
1.6098733888966378e-06
8.286775823830582e-06
7.440977852164467e-07
7.593352216601442e-06
1.70159633811951e-06
7.102768013695748e-06
3.1589422923799193e-06
3.446434494120786e-06
3.634112454755103e-06
-5.284428324410561e-07
5.987184258019125e-06
-2.5771740669214696e-06
7.32860975656038e-06
-3.4965361356774055e-06
6.489298785871128e-06
-1.0961508656842577e-06
3.162577869160305e-06
1.7646606842752174e-06
-2.2309380359979364e-08
4.641107777474884e-06
-3.7478510388175462e-06
7.395147741484575e-06
-9.706458208025277e-06
4.4701204238953814e-06
-9.850524031957222e-06
2.232331077687203e-06
-7.716770453304285e-06
1.7958905963435257e-06
-8.37526524985219e-06
2.9609530686996243e-06
-9.206054478278459e-06
-1.9664431587134944e-07
-4.29190427298382e-06
7.836083327844119e-07
-2.043913440174448e-06
1.512261743631837e-06
-3.132196647837052e-07
5.061238138282256e-07
-1.815580880218048e-06
-2.5569724522263232e-06
-1.4234703604846221e-06
0.0
0.0
0.0
0.0
0.0
0.0
0.0
0.0
0.0
0.0
0.0
0.0
0.0
0.0
0.0
0.0
0.0
0.0
0.0
0.0
0.0
0.0
0.0
0.0
0.0
0.0
0.0
0.0
6.685315022444284e-06
-7.38193440080492e-08
5.7605229941137145e-06
1.0894326187656736e-06
5.014406739141988e-06
-2.162646466942532e-06
4.191310122526641e-06
-2.1744992165493354e-06
1.2072965277821903e-06
-7.484100062695861e-07
1.0645153937772037e-06
1.2742532211620207e-06
7.285457870883775e-07
1.8818465085573778e-06
-2.3075772773992703e-07
3.239002341516824e-06
1.195382029822271e-06
2.163398712481456e-06
2.085997396145631e-06
-7.114741106498789e-07
2.6087871018757406e-06
2.1231179316267182e-07
2.651376186575341e-06
4.1638591354305075e-07
3.529357558607823e-06
4.2981161649285903e-07
5.3658931271997235e-06
-1.9493797542511397e-06
6.127110702613917e-06
-3.2466634178366834e-06
4.447837794159352e-06
-1.2683475761612865e-06
1.7094774297057363e-06
-2.5269382550959225e-06
2.254800475971039e-06
-2.7034733405969065e-06
3.3326900266669685e-06
-7.56166682450094e-07
3.5226454383232894e-06
-1.506452372847193e-07
2.3066302672926205e-06
2.7514403720706984e-06
5.926009203374215e-07
3.5363922821147686e-06
4.744099053240203e-07
5.297160725422473e-06
2.262462003623696e-06
5.37287515407838e-06
4.246520747365045e-06
2.9300080821707807e-06
5.968018803485608e-06
1.0076979174496331e-07
7.250770751525717e-06
-3.408763628715701e-08
2.468401171317641e-06
1.6397166531564899e-06
2.652587602443505e-06
-8.306435527803203e-07
1.6005720194667319e-06
-7.38725172184916e-07
4.218502065012294e-07
-2.3756291128263026e-06
-2.524833191952853e-06
5.67817704614795e-07
-2.395733996689118e-06
-1.3336887716096914e-06
-4.92537295199595e-06
-1.9941023544128006e-06
-5.342175181647831e-06
4.2252939059365365e-07
-5.561206361977864e-06
-5.66962897379514e-08
-6.871782942427503e-06
1.843964743934653e-06
-5.096439934849733e-06
0.0
0.0
0.0
0.0
0.0
0.0
0.0
0.0
0.0
0.0
0.0
0.0
0.0
0.0
0.0
0.0
0.0
0.0
0.0
0.0
0.0
0.0
0.0
0.0
0.0
0.0
-2.1540142900415465e-06
1.509106230342011e-06
-4.7898077540829044e-06
1.363357971110457e-06
-2.016531004201834e-06
1.330173605978804e-06
1.0319306308599883e-06
-3.911287167836469e-07
1.7991255454031592e-06
1.8038542379760713e-07
2.7600208831062424e-06
4.780886947467705e-07
5.69323359626185e-06
-3.2984486374254445e-07
4.238087080314636e-06
-1.5008066047502875e-06
1.6732108316809905e-06
-2.1392246420759403e-06
2.3572141388841176e-06
-4.575251176271942e-06
7.989443019444182e-07
-5.3456783908982565e-06
-1.4550558121203918e-06
-5.734230730779684e-06
-2.360276128153439e-06
-4.952115405615174e-06
-1.3894850440016445e-06
-2.607449650445485e-06
-9.551044028427805e-07
-2.4452342549769245e-06
1.6569693395591294e-07
2.5145734508306162e-06
4.0261496119324016e-07
5.305235040092059e-06
-1.119446979032007e-06
7.355328066115783e-06
1.624213679853979e-07
9.465364829678212e-06
7.55908405001059e-07
6.187604556063599e-06
1.355867628741954e-06
4.223609240530854e-06
3.8579281243245634e-06
1.5661640500789212e-06
4.722397735316014e-06
-1.8682229832232487e-06
7.837063164980487e-06
-3.650014398235762e-06
8.562322225409528e-06
-1.736637081868092e-06
5.297511771934213e-06
5.976272132267778e-07
3.5483057522532075e-06
1.4048021120265817e-06
-1.57960098501614e-06
6.190513687589511e-06
-9.043874046487601e-06
8.191921972088844e-06
-1.0630164872537743e-05
5.273575201981609e-06
-8.428758100032485e-06
6.520818817681888e-06
-6.741281725965795e-06
2.986887009409514e-06
-6.218654532895297e-06
4.1643948060802593e-07
-5.155967803256329e-06
1.3864245027179482e-06
-4.4643754796562605e-06
-5.45288047741626e-07
-1.6316478581715527e-06
-2.640448209267914e-06
-2.7143550659825008e-06
-4.283426899006252e-06
7.8384360184262e-07
9.330740968021095e-07
8.740685861083824e-07
0.0
0.0
0.0
0.0
0.0
0.0
0.0
0.0
0.0
0.0
0.0
0.0
0.0
0.0
0.0
0.0
0.0
0.0
0.0
0.0
0.0
0.0
0.0
-0.0
1.6783808175672572e-06
-1.7056849150750747e-06
4.232143076892734e-06
-3.56279806164865e-06
6.2694404112682645e-06
-5.752290498493768e-07
5.134813933904625e-06
-1.3417121309702965e-06
3.180899229246709e-06
-6.164875432368334e-07
1.9171692660595402e-06
4.2683765673973896e-07
2.2177559406852704e-06
-3.472308921511006e-07
1.5795106413339237e-06
1.6882215954325743e-06
-2.3839390156761404e-08
1.3534231924751254e-06
-4.221248428690691e-07
2.721864714332351e-06
-1.4413371741622943e-06
-3.5782759743687496e-07
1.8817070237910384e-06
-2.1622182415161914e-06
2.620641914063157e-06
-2.5487578058827915e-06
3.5594535898869554e-06
-1.6018805634026544e-06
5.176635029376921e-06
-3.833844096001832e-06
6.8346723734310775e-06
-4.325638936096319e-06
4.845612691844699e-06
-5.3193250786368194e-06
4.002088541887965e-06
-5.224551025232507e-06
3.8205178143522485e-06
-1.7427768969245459e-06
2.139371398066924e-06
-1.7476771465267924e-06
1.3463443859580852e-06
-1.4501418226822774e-06
1.2780949254280966e-06
3.8259406801004176e-07
9.773067489578162e-07
4.426822684754005e-07
-1.3015458711742275e-06
1.6978628453376304e-06
-2.4278960820179495e-06
2.4299485059273028e-06
-7.418645258332907e-07
1.9972764075341186e-06
2.795042145333773e-06
1.2379166610940054e-06
4.457639424370368e-06
4.345295774370324e-07
2.1611419761623078e-06
9.607677846640232e-07
8.668443001128423e-08
1.8425173397837872e-06
1.1269406241877573e-06
-7.352413303133355e-07
-5.308439771992876e-07
9.2460158931198e-07
-9.552480337107047e-07
-8.771533495159125e-07
-3.4384977227040315e-06
-1.8320513652087342e-06
-3.549350931171196e-06
2.2591638635026766e-06
-3.870489193413318e-06
3.13073903875879e-06
-5.084350449198461e-06
2.8414442366069423e-06
-4.050125137891134e-06
1.392474467043075e-06
-3.106953624739537e-06
7.700989285659714e-07
-4.185874591668706e-06
0.0
0.0
0.0
0.0
0.0
0.0
0.0
0.0
0.0
0.0
0.0
0.0
0.0
0.0
0.0
0.0
0.0
0.0
0.0
0.0
0.0
0.0
-1.123566290418628e-07
2.0736546588193698e-07
-4.3756610639090817e-07
1.5835144113437957e-06
-1.8722747988267055e-06
2.786237303225552e-06
-2.2399855047778287e-06
3.0002757592690013e-06
1.5260867485817396e-06
1.6991206617822276e-06
3.4827996029476846e-06
1.706071272484698e-07
3.869216235592141e-06
-1.416956887214601e-07
4.399914011014632e-06
-2.447802569951286e-07
4.533995138230021e-06
-2.9440364932647365e-07
4.570086214342626e-07
-2.470667730967862e-08
2.4977550823678164e-06
-1.2388906292106062e-06
3.5456664897920996e-06
-4.4918927546598115e-06
9.889762313223492e-07
-4.22374398786719e-06
3.688069454138823e-07
-4.689871710579604e-06
6.823946983419995e-07
-5.20067398067569e-06
-7.461862996949978e-07
-2.3013856429160266e-06
-2.968761584334569e-06
2.5039834850848572e-06
-4.329187204542907e-06
5.889779088053127e-06
-3.5136114551650836e-06
8.295789785224193e-06
-1.694909354131335e-06
6.83156229772898e-06
-1.5148322451956443e-08
6.9193161642229295e-06
2.7501895505445303e-06
6.83808097071286e-06
3.769659421778725e-06
2.4608390527678138e-06
6.779847091187204e-06
-1.6993325709145535e-06
8.81115099290861e-06
-4.469071528546764e-06
7.23968274886211e-06
-3.593267294496745e-06
5.471122019846444e-06
-3.4478809039141954e-06
4.257483709116659e-06
-2.2557003560830036e-06
1.9414469784920327e-06
-5.550830932228431e-07
-1.986258724653334e-06
9.75829989049968e-07