# vtk DataFile Version 2.0
Acoustic field
ASCII
DATASET STRUCTURED_POINTS
DIMENSIONS 102 102 1
ORIGIN -0.01 -0.01 0
SPACING 0.0002 0.0002 1
POINT_DATA 10404
SCALARS pressure float 1
LOOKUP_TABLE default
0.0
0.0
0.0
0.0
0.0
0.0
0.0
0.0
0.0
0.0
0.0
0.0
0.0
0.0
0.0
0.0
0.0
0.0
0.0
0.0
0.0
0.0
0.0
0.0
0.0
0.0
0.0
0.0
0.0
0.0
0.0
0.0
0.0
0.0
0.0
0.0
0.0
0.0
0.0
0.0
0.0
-0.0
-0.0
-0.0
-0.0
-0.0
-0.0
-0.0
-0.0
-0.0
8.705240086259488e-06
-0.0
-0.0
-0.0
-0.0
-0.0
-0.0
-0.0
-0.0
-0.0
0.0
0.0
0.0
0.0
0.0
0.0
0.0
0.0
0.0
0.0
0.0
0.0
0.0
0.0
0.0
0.0
0.0
0.0
0.0
0.0
0.0
0.0
0.0
0.0
0.0
0.0
0.0
0.0
0.0
0.0
0.0
0.0
0.0
0.0
0.0
0.0
0.0
0.0
0.0
0.0
0.0
0.0
0.0
0.0
0.0
0.0
0.0
0.0
0.0
0.0
0.0
0.0
0.0
0.0
0.0
0.0
0.0
0.0
0.0
0.0
0.0
0.0
0.0
0.0
0.0
0.0
0.0
0.0
0.0
0.0
0.0
0.0
0.0
0.0
0.0
0.0
0.0
0.0
-0.0
0.0
-0.0
0.0
0.0
-1.903616794226847e-05
-4.842870404102257e-07
-1.5074549697818526e-05
-4.080786056472171e-06
-1.5372301925432343e-05
-7.775470522735668e-06
-1.4741868554407205e-05
-9.888089802983776e-06
-7.893441397876861e-06
-1.7453855545351923e-05
-6.760302756547328e-06
-2.9540908816897452e-05
2.5358130562983613e-06
-3.158416519421448e-05
6.1392907600057075e-06
-2.804649959285138e-05
1.0914141860855685e-05
-2.1199877001641442e-05
1.2672964636658917e-05
0.0
0.0
0.0
0.0
0.0
0.0
0.0
0.0
0.0
0.0
0.0
0.0
0.0
0.0
0.0
0.0
0.0
0.0
0.0
0.0
0.0
0.0
0.0
0.0
0.0
0.0
0.0
0.0
0.0
0.0
0.0
0.0
0.0
0.0
0.0
0.0
0.0
0.0
0.0
0.0
0.0
0.0
0.0
0.0
0.0
0.0
0.0
0.0
0.0
0.0
0.0
0.0
0.0
0.0
0.0
0.0
0.0
0.0
0.0
0.0
0.0
0.0
0.0
0.0
0.0
0.0
0.0
0.0
0.0
0.0
0.0
0.0
0.0
0.0
0.0
-0.0
-0.0
-0.0
-3.635000014779556e-05
-2.131524309174362e-06
-3.2990392645495986e-05
-4.342982411934041e-07
-2.688467916995572e-05
2.556842508312153e-06
-1.559139324027377e-05
1.3490092243871082e-07
-1.166059511229177e-05
1.3220588674552374e-06
-4.317445426866475e-06
3.4445399242806853e-06
4.671350394602031e-06
2.6287799458212744e-06
7.919604856570064e-06
8.744349810401874e-07
1.3125881017276137e-06
2.3238403958758344e-06
-6.55060546905068e-07
7.53353503260625e-06
-1.995476360183606e-06
1.0316475799440234e-06
-5.4367544082870146e-06
9.161429162871523e-07
-3.3430095786967073e-06
4.137062020257142e-07
-4.318595475340717e-06
-5.881634620572208e-06
-0.0
-0.0
-0.0
0.0
0.0
0.0
0.0
0.0
0.0
0.0
0.0
0.0
0.0
0.0
0.0
0.0
0.0
0.0
0.0
0.0
0.0
0.0
0.0
0.0
0.0
0.0
0.0
0.0
0.0
0.0
0.0
0.0
0.0
0.0
0.0
0.0
0.0
0.0
0.0
0.0
0.0
0.0
0.0
0.0
0.0
0.0
0.0
0.0
0.0
0.0
0.0
0.0
0.0
0.0
0.0
0.0
0.0
0.0
0.0
0.0
0.0
0.0
0.0
0.0
0.0
0.0
0.0
0.0
0.0
-0.0
-0.0
-5.657033306744924e-06
8.575976351783439e-06
-8.302219215527754e-06
1.1147322433692086e-05
-3.898048675587345e-06
6.24161521018192e-06
2.9674090875732852e-06
5.969337174006135e-06
-7.319439535247748e-06
2.644357321329717e-06
-1.1984353845396422e-05
-4.746032600636593e-06
-6.65183667988735e-06
-1.1110321629992518e-05
-9.757540614403396e-06
-1.3211219102590762e-05
-7.990471414773728e-06
-1.870786174497474e-05
-2.3926796549060352e-06
-3.0114280827504314e-05
-6.02443734247207e-07
-2.9641519631809755e-05
2.8339753832864285e-06
-2.590130734178411e-05
1.0231505303817729e-05
-2.665065463112098e-05
1.2972118549534803e-05
-1.3037852983530744e-05
9.7651006233362e-06
-1.2777600193351775e-05
1.1648537796855788e-05
-1.7001940949647923e-05
2.1859473643640156e-05
-1.4447584128079752e-05
2.988410144425925e-05
0.0
0.0
0.0
0.0
0.0
0.0
0.0
0.0
0.0
0.0
0.0
0.0
0.0
0.0
0.0
0.0
0.0
0.0
0.0
0.0
0.0
0.0
0.0
0.0
0.0
0.0
0.0
0.0
0.0
0.0
0.0
0.0
0.0
0.0
0.0
0.0
0.0
0.0
0.0
0.0
0.0
0.0
0.0
0.0
0.0
0.0
0.0
0.0
0.0
0.0
0.0
0.0
0.0
0.0
0.0
0.0
0.0
0.0
0.0
0.0
0.0
0.0
0.0
-0.0
-0.0
1.263467644883663e-05
-1.3203594607628684e-05
5.956453869831853e-06
-1.655116831788087e-05
3.6858578707863435e-06
-3.319145760529273e-05
3.512593111167114e-06
-3.4296038783114807e-05
4.243987250258867e-06
-3.253336031734438e-05
7.125643325448681e-06
-2.002199154912967e-05
3.1362212129839232e-06
-8.643638887737316e-06
4.5040574725773444e-07
2.9675914179699674e-06
4.236542599184202e-06
8.247801411540255e-06
4.947857525699766e-06
1.0599585945936614e-05
2.213934465028774e-06
9.194461671446605e-06
5.073468617304572e-07
-3.2710488980401187e-06
3.436041020191768e-06
7.194087288782754e-07
2.255980006047043e-06
-3.322224647770345e-06
1.6001154136877958e-08
-5.169380830426653e-06
-4.379682219437877e-06
-9.144967859969649e-06
-6.407158400841382e-06
-6.996492750594714e-06
-5.970987404837967e-06
-4.128670824673979e-06
-6.609808787079547e-06
-3.049695488627137e-06
-1.4015240888036254e-05
-0.0
0.0
0.0
0.0
0.0
0.0
0.0
0.0
0.0
0.0
0.0
0.0
0.0
0.0
0.0
0.0
0.0
0.0
0.0
0.0
0.0
0.0
0.0
0.0
0.0
0.0
0.0
0.0
0.0
0.0
0.0
0.0
0.0
0.0
0.0
0.0
0.0
0.0
0.0
0.0
0.0
0.0
0.0
0.0
0.0
0.0
0.0
0.0
0.0
0.0
0.0
0.0
0.0
0.0
0.0
0.0
0.0
0.0
0.0
-0.0
-0.0
3.8124847859302604e-06
1.1733477081551608e-05
8.779770484241507e-08
1.2744675046423254e-05
-3.6309958578557707e-06
1.616921323034086e-05
-2.342371887893718e-07
1.533280632554005e-05
4.0805419874341375e-06
1.4505613806906e-05
-2.2335427234229377e-08
7.907992794533794e-06
-5.12175360901959e-06
4.6523482356152425e-06
-5.410332162197221e-06
-6.726429970996781e-07
-7.354327378672922e-06
-8.33942240763703e-06
-9.339867708855876e-06
-1.228885392036233e-05
-8.95185597945542e-06
-1.8898013042510002e-05
-6.123654938262856e-06
-2.1696215032806614e-05
-2.483965357519411e-06
-2.326015788762549e-05
7.630241026158596e-06
-2.4432813674889184e-05
5.394839815156292e-06
-2.2407240571852916e-05
6.1971944301190726e-06
-2.0419685895048398e-05
9.451568739543001e-06
-1.6479241993510502e-05
1.448888145976725e-05
-1.9336525670702086e-05
1.924470097246126e-05
-2.0655530157209807e-05
2.407016220995202e-05
-1.3157280298368217e-05
1.963045176838358e-05
-1.0729761220355862e-05
2.6137647842817512e-05
0.0
0.0
0.0
0.0
0.0
0.0
0.0
0.0
0.0
0.0
0.0
0.0
0.0
0.0
0.0
0.0
0.0
0.0
0.0
0.0
0.0
0.0
0.0
0.0
0.0
0.0
0.0
0.0
0.0
0.0
0.0
0.0
0.0
0.0
0.0
0.0
0.0
0.0
0.0
0.0
0.0
0.0
0.0
0.0
0.0
0.0
0.0
0.0
0.0
0.0
0.0
0.0
0.0
0.0
0.0
-0.0
-0.0
1.6735222166196618e-05
-2.8809631005632502e-06
1.4765059428182375e-05
-1.2625148095149876e-05
1.897694720896691e-05
-1.8773302543564303e-05
9.952226276140036e-06
-2.198974840114682e-05
7.630258952026957e-06
-2.874609393441367e-05
3.782748895414297e-06
-3.3868578226809636e-05
6.1608230714975166e-06
-2.7462453096354665e-05
6.5329758134245196e-06
-1.5850732546987438e-05
1.0650083398646326e-06
-8.440922829118743e-07
-1.6108744136521785e-06
3.7428939162826707e-06
-6.538381458935452e-07
5.015099296133857e-06
4.96457835293692e-06
1.2980575686581345e-05
-5.411842906213269e-06
1.1932256684899129e-05
-2.4460358922241877e-06
4.113516339648837e-06
2.2321935366161744e-06
7.965762330373344e-07
2.5066932191503133e-06
-1.307603423662843e-06
-3.4869046493863426e-06
-6.606443469354597e-06
-3.5495433719193564e-06
-6.378237518150973e-06
-3.686700243646744e-06
-8.484409817567111e-06
-3.3490270007123015e-06
-6.706299065353585e-06
-3.0786831603125227e-06
-5.262908211222043e-06
-8.904844209627034e-06
-9.996467172458422e-06
-9.245396151050405e-06
-9.105331806187418e-06
-1.1507096464098555e-05
-0.0
0.0
0.0
0.0
0.0
0.0
0.0
0.0
0.0
0.0
0.0
0.0
0.0
0.0
0.0
0.0
0.0
0.0
0.0
0.0
0.0
0.0
0.0
0.0
0.0
0.0
0.0
0.0
0.0
0.0
0.0
0.0
0.0
0.0
0.0
0.0
0.0
0.0
0.0
0.0
0.0
0.0
0.0
0.0
0.0
0.0
0.0
0.0
0.0
0.0
0.0
-0.0
-0.0
-3.936972616108682e-07
8.486460035238954e-06
-1.1847515438254511e-06
8.74921809911788e-06
-1.9243966913736175e-06
1.6425345040388503e-05
3.508376992860948e-06
1.7218918120692303e-05
4.348103027043107e-06
1.8779491875574546e-05
4.95797407371876e-06
1.9197252254828726e-05
5.998215471829206e-06
1.5143237803468942e-05
7.532305891728497e-06
1.1613885782857016e-05
1.8968667618975979e-06
8.221768995820643e-06
1.4272917749915506e-06
-1.0476674182832397e-06
-4.426438413410219e-06
-5.9890866477201156e-06
-7.757859379089437e-06
-6.740901768773802e-06
-4.297875230092142e-06
-1.2008290790568546e-05
-4.019277528739015e-06
-1.25664007069674e-05
-1.7895885292703888e-06
-1.186357781077379e-05
2.9735205140105092e-06
-1.8321060280690988e-05
4.210889042675147e-06
-2.3599184628342185e-05
9.37315321268444e-06
-1.4967121262969056e-05
7.828448660128203e-06
-1.4614151475501204e-05
1.2896763650564287e-05
-1.9884302103861104e-05
1.6260699019814563e-05
-1.879275890563583e-05
2.0896460929189783e-05
-1.5365152199391178e-05
1.8606066279653093e-05
-1.26286089231123e-05
1.9134521595917933e-05
-1.0366332735276906e-05
1.3966947301740692e-05
-6.4446528370843215e-06
1.7721848197334036e-05
0.0
0.0
0.0
0.0
0.0
0.0
0.0
0.0
0.0
0.0
0.0
0.0
0.0
0.0
0.0
0.0
0.0
0.0
0.0
0.0
0.0
0.0
0.0
0.0
0.0
0.0
0.0
0.0
0.0
0.0
0.0
0.0
0.0
0.0
0.0
0.0
0.0
0.0
0.0
0.0
0.0
0.0
0.0
0.0
0.0
0.0
0.0
0.0
-0.0
6.9722336737799255e-06
-3.5914542891776515e-06
8.920419811451987e-06
-5.270316073167509e-06
1.610016703559385e-05
-6.204111320642551e-06
1.3736138118224801e-05
-1.5914745330328265e-05
1.0521823683226807e-05
-2.4190193281841226e-05
1.1389998355452659e-05
-2.460903846166137e-05
2.247278758626332e-06
-2.8968529857617303e-05
4.333347796193131e-06
-2.9129194906613874e-05
8.231853793962257e-06
-2.352957250890132e-05
3.173777556362844e-06
-6.404975364451554e-06
4.7234229500805e-07
-1.5426435478534572e-06
8.78522916130966e-07
3.975237809129394e-06
1.9145951175910755e-06
6.21458377560391e-06
-1.3957580862159289e-06
6.201616734288957e-06
-1.2182201119287871e-06
9.550480912630643e-06
-6.493567393259817e-06
8.52103165927162e-06
1.6335542282746766e-06
3.293927313135697e-06
2.8738994163349983e-06
-6.699647427829126e-07
-1.6007380320307952e-06
-4.153390473654619e-06
-3.692658254608305e-06
-5.26286971983054e-06
-3.739634241075277e-06
-9.068107865900294e-06
-1.1845204087124176e-06
-1.2306896971545357e-05
-3.6481534560020123e-06
-1.5389381030878335e-05
-5.869756045549301e-06
-1.4156201937896102e-05
-1.1201122600968704e-05
-9.953380700765764e-06
-9.352870446578304e-06
-1.2810544451429254e-05
-1.337194449656114e-06
-9.257042861929351e-06
4.739587983835001e-07
-0.0
0.0
0.0
0.0
0.0
0.0
0.0
0.0
0.0
0.0
0.0
0.0
0.0
0.0
0.0
0.0
0.0
0.0
0.0
0.0
0.0
0.0
0.0
0.0
0.0
0.0
0.0
0.0
0.0
0.0
0.0
0.0
0.0
0.0
0.0
0.0
0.0
0.0
0.0
0.0
0.0
0.0
0.0
0.0
-0.0
-0.0
-5.517794920068373e-06
-4.1609017586667726e-06
-5.896717309332587e-06
-2.980532130475493e-06
8.029301551611805e-07
-1.5008342689785394e-07
1.1838546937037997e-05
9.19977329973946e-07
1.2261933081298699e-05
2.4812492548626296e-06
1.337881736599833e-05
8.80008634675141e-06
1.3999402038963669e-05
7.248489151763695e-06
1.1922305245869192e-05
5.594748131752305e-06
8.807166917676384e-06
8.297716926683237e-06
8.987080250257154e-06
4.273320554867759e-06
9.961905835678108e-07
1.3040133626790431e-06
-2.8300687386160116e-06
-1.8601351884315302e-06
-6.213492873127748e-06
-8.058080002760614e-06
-9.698966153743748e-06
-1.3634270025443278e-05
-9.180834748309865e-06
-1.009034383526012e-05
-8.378873306738423e-06
-1.0183591897546977e-05
-1.1784351817140714e-05
-7.311812055500403e-06
-1.2350552385652985e-05
-1.78990838828389e-06
-1.215552697513684e-05
-1.0488042899319347e-07
-7.955143651757301e-06
1.82052472032717e-08
-1.1169217530345592e-05
8.204541489149121e-06
-1.8136705617549356e-05
1.2670079272039007e-05
-1.5409025081685963e-05
1.4234706718327196e-05
-1.3107781459456405e-05
1.0840185891998959e-05
-1.3357173870266232e-05
1.1853335771486117e-05
-1.643303447293909e-05
1.5724223007990743e-05
-1.0674037806967151e-05
8.849150532765672e-06
-4.638576806141779e-06
4.457009506294915e-06
-8.87372335342507e-06
0.0
0.0
0.0
0.0
0.0
0.0
0.0
0.0
0.0
0.0
0.0
0.0
0.0
0.0
0.0
0.0
0.0
0.0
0.0
0.0
0.0
0.0
0.0
0.0
0.0
0.0
0.0
0.0
0.0
0.0
0.0
0.0
0.0
0.0
0.0
0.0
0.0
0.0
0.0
0.0
0.0
0.0
-0.0
-1.364272267596236e-05
7.900289971920132e-06
-1.1150548941983075e-05
5.562084962367463e-06
-1.2531986694738247e-05
1.404870245749513e-05
-1.0260758608789681e-05
1.264661604582019e-05
-1.56351914690833e-05
1.019542665914087e-05
-1.6613600456898275e-05
8.557149650660361e-06
-2.1770304160305866e-05
4.646725278885617e-06
-2.2003598097542646e-05
1.389434877018382e-06
-2.0275022423395926e-05
1.5808452894590928e-07
-1.667900968707959e-05
4.7920413959571146e-06
-1.491518530828797e-05
5.451129404944612e-06
-4.94105744885328e-06
5.3267914037142815e-06
4.390463015173371e-06
-5.767724911064684e-07
9.154676888488859e-06
-2.1344321019267986e-06
1.1704652706863377e-05
-6.733365018873551e-06
9.730282447980974e-06
-1.1577744137044874e-05
9.62845498671075e-06
-7.796425377267748e-06
4.915004588627893e-06
-8.3473354555939e-06
-9.539651117719164e-06
-7.880018518750202e-06
-7.293571498060238e-06
-8.761511864786777e-06
-1.5035300969074017e-05
-6.8562726961038945e-06
-1.407411051255491e-05
-5.516316058242927e-06
-1.6301689121305506e-05
-5.7887163648955025e-06
-1.8367053588672717e-05
9.285865607285135e-07
-1.936309266173633e-05
-4.804786622992542e-06
-2.142726578222317e-05
-4.547193583712048e-06
-1.804020271646494e-05
-6.9554124698258425e-06
-1.295164812999806e-05
-3.5949416239452e-06
-1.2812547232891275e-05
-1.0390574221553095e-06
-3.702227886806787e-06
5.5582543666961294e-06
-0.0
0.0
0.0
0.0
0.0
0.0
0.0
0.0
0.0
0.0
0.0
0.0
0.0
0.0
0.0
0.0
0.0
0.0
0.0
0.0
0.0
0.0
0.0
0.0
0.0
0.0
0.0
0.0
0.0
0.0
0.0
0.0
0.0
0.0
0.0
0.0
0.0
0.0
0.0
0.0
-0.0
-1.31965357348308e-05
7.13632284183836e-07
-5.894242901985259e-06
-3.71322804211805e-06
-7.859717104008567e-06
-3.0661972294731983e-06
-7.866158904632305e-06
-6.851789540443294e-07
-6.384337821553437e-07
7.241974138162782e-06
2.6242270412133718e-06
1.3520905773739008e-05
7.340513484761575e-06
1.324792032102912e-05
1.0037822588312911e-05
1.3381197433410667e-05
1.3878408801460751e-05
1.393747025571933e-05
1.2933870396098278e-05
4.9285911485806565e-06
1.169670530837507e-05
-7.970699936207609e-07
3.493759225725479e-06
9.880135512781639e-08
2.0575850008251768e-06
-6.912578355546058e-06
-4.068571165773747e-06
-1.105509425793008e-05
-1.4726423535196863e-05
-1.0320347217046252e-05
-1.3312090320022861e-05
-7.163235595899324e-06
-1.2340724726092142e-05
-4.919655916804307e-06
-1.5707489492711616e-05
-2.0776059728737855e-06
-1.2445333870552446e-05
-3.6786431385352603e-06
-8.39486856212821e-06
-8.945712401702423e-06
-7.1549745841613795e-06
8.001694855478824e-08
-2.024089037832745e-06
-4.418355150697916e-06
-1.0627351375884792e-06
-1.0147219502596388e-05
1.0266990195046978e-06
-9.802979693583063e-06
8.181416653628408e-06
-7.414545803315223e-06
4.227141167605506e-06
-1.306644944133803e-05
2.94981410649157e-06
-1.7348987079236975e-05
6.447261741136051e-06
-8.4875192828458e-06
4.899468156223492e-06
-7.80523691830986e-06
8.37802581054075e-06
-8.486581439269827e-06
6.846462760588907e-06
-5.338361605666666e-06
1.1160467329107532e-05
0.0
0.0
0.0
0.0
0.0
0.0
0.0
0.0
0.0
0.0
0.0
0.0
0.0
0.0
0.0
0.0
0.0
0.0
0.0
0.0
0.0
0.0
0.0
0.0
0.0
0.0
0.0
0.0
0.0
0.0
0.0
0.0
0.0
0.0
0.0
0.0
0.0
-0.0
-2.9789697690971578e-05
1.1139233685355094e-06
-2.5144170202762313e-05
6.136252654934419e-06
-2.2637641896979313e-05
4.329841201420347e-06
-1.8897585338086407e-05
9.365100398650454e-06
-1.569902120526076e-05
1.2498234595617962e-05
-1.529189072961591e-05
4.270236290833134e-06
-1.642453287127726e-05
-6.560323035925577e-07
-1.8548046695701294e-05
-3.9565456521510154e-07
-1.7991151212755954e-05
-2.241831291347893e-06
-1.516928193117911e-05
-2.6607947964467868e-06
-9.934596362289531e-06
6.509565852383e-06
-8.47973213627569e-06
5.75331687918169e-06
-8.149318741283966e-07
-6.148296017586418e-07
8.15974589934811e-06
-5.632156241732515e-07
1.326180387947126e-05
-8.292663508429314e-06
9.652883521402763e-06
-1.5531483001470434e-05
4.844378337174979e-06
-1.298288891474591e-05
-8.542056494055907e-07
-1.321586811513112e-05
-8.669205835989935e-06
-1.5156317943439216e-05
-1.5405767402965574e-05
-1.3624854428235355e-05
-1.5362005685977926e-05
-1.2765654553349534e-05
-1.9621564543681274e-05
-1.3385990949517669e-05
-2.0729066119902228e-05
-8.34258472808594e-06
-2.1794574430903152e-05
-3.725927273895331e-06
-2.4783321603045288e-05
-6.386828728118908e-06
-2.6604407025902825e-05
-2.529544411588791e-06
-2.3878368785146586e-05
-1.5534701046880476e-06
-2.266607696832629e-05
-3.805617984198861e-06
-1.5877883092894204e-05
-3.2668397002236783e-06
-9.736517392614581e-06
-1.7535812500509084e-06
-2.606116624097171e-06
-2.715825095048526e-07
9.423772637107798e-06
3.0242324723662666e-06
2.5641958261319806e-05
0.0
0.0
0.0
0.0
0.0
0.0
0.0
0.0
0.0
0.0
0.0
0.0
0.0
0.0
0.0
0.0
0.0
0.0
0.0
0.0
0.0
0.0
0.0
0.0
0.0
0.0
0.0
0.0
0.0
0.0
0.0
0.0
0.0
0.0
0.0
0.0
-3.621535743720807e-06
-1.8852817079143873e-06
-5.977081559243224e-06
-1.760286162206873e-06
-9.85355574232036e-06
9.022859169943928e-07
-9.548897034214006e-06
-3.3167323309622672e-06
-8.555489818745484e-06
3.3908510455375616e-06
-6.167820443510542e-06
1.226238558768264e-05
-2.963587622009053e-07
1.1089599538134287e-05
6.150359669901191e-06
1.2510089615547409e-05
1.4157288668852143e-05
1.3234701883875235e-05
9.380647391656229e-06
8.13537680047624e-06
1.0839373759215984e-05
3.46660211339959e-06
8.104068164405722e-06
-1.1907548308373932e-06
-1.5328731200045925e-06
-3.595409031100884e-06
-3.0623967213431843e-06
-8.857651156107218e-06
-7.757840737173208e-06
-1.1925492535851973e-05
-1.6700402258130007e-05
-1.0782356477526044e-05
-1.558609352646164e-05
-5.0415303175996575e-06
-1.25443172146007e-05
-8.848635395961268e-07
-1.496175280326501e-05
4.474330372422638e-07
-1.7237907946424744e-05
1.5451689818943996e-07
-1.3938441228470042e-05
-5.873791741837283e-06
-1.1412531168149194e-05
-2.399204505882592e-06
-9.854039923751998e-06
1.1417036321043933e-07
-9.547415782405382e-06
-9.350510027928651e-07
-3.5748935111689946e-06
1.9936494657809365e-06
-2.0400244031146295e-06
1.19335527477641e-06
-3.741124565130652e-06
-4.7264938559575e-06
-2.1560181368219548e-06
-1.346025826690128e-05
-3.450333406991367e-06
-1.0415225333707825e-05
3.9593020300307724e-07
-7.289803510174783e-06
4.764860868177271e-06
-1.1828664514719366e-05
9.884116279546053e-06
-9.375184947828812e-06
1.3253276973379177e-05
-3.830343011679723e-06
1.0365053475839164e-05
0.0
0.0
0.0
0.0
0.0
0.0
0.0
0.0
0.0
0.0
0.0
0.0
0.0
0.0
0.0
0.0
0.0
0.0
0.0
0.0
0.0
0.0
0.0
0.0
0.0
0.0
0.0
0.0
0.0
0.0
0.0
0.0
0.0
-0.0
-3.219688243142759e-05
3.6996310710199e-06
-2.796225354358486e-05
4.47822395983372e-06
-2.469387978191939e-05
-2.2033940544926977e-06
-2.4795672096438168e-05
1.1076694245950517e-06
-2.125920685209441e-05
2.3775036299736915e-06
-1.8771905328217867e-05
-2.1693110275074596e-06
-1.8140839540667934e-05
-6.867965446016218e-06
-1.9059454642552262e-05
-7.522005692200316e-06
-2.077221522066932e-05
-5.476082154979947e-06
-1.3529590465819607e-05
-4.74101251219037e-06
-7.957391048549389e-06
-9.658480320165134e-07
-7.81546955238478e-06
3.625500025737445e-06
-2.832836269439955e-06
-1.6366033251573281e-06
-2.7079026305447884e-07
-1.5860192863343334e-06
7.502533960172721e-06
-3.355152784581468e-06
5.9740157063432e-06
-1.3579430295898014e-05
3.354306082004367e-06
-1.7289886240902147e-05
8.160314605523711e-07
-1.8401057021444548e-05
-1.0979644588358534e-05
-2.0692235094226714e-05
-1.6164423935184727e-05
-2.2978703099899834e-05
-1.954663989234546e-05
-1.567800171489434e-05
-2.4415437417264928e-05
-1.2453400166229272e-05
-2.9147181011674986e-05
-1.364700704338874e-05
-2.7056503529377566e-05
-5.789068986979815e-06
-2.7904068106586278e-05
-7.897086555829967e-06
-2.7369200800768196e-05
-9.313611568057154e-06
-2.6054381830794113e-05
-6.579361975459647e-06
-2.4682258023275856e-05
-1.2033512485997853e-06
-2.1746056013363952e-05
-1.2973641218981675e-06
-1.769406095393612e-05
-3.0863952591950853e-06
-1.295515779924927e-05
-4.0496944388699646e-06
-6.822787029388651e-06
-1.2766310317211459e-06
6.75694253406272e-06
2.043032166733792e-06
3.0726994001599845e-05
4.150066391757782e-07
4.582151276387337e-05
0.0
0.0
0.0
0.0
0.0
0.0
0.0
0.0
0.0
0.0
0.0
0.0
0.0
0.0
0.0
0.0
0.0
0.0
0.0
0.0
0.0
0.0
0.0
0.0
0.0
0.0
0.0
0.0
0.0
0.0
0.0
-0.0
1.1677347124490833e-06
-1.9868734971439197e-06
-6.083534291436762e-07
8.437731266879872e-07
-5.703684755751316e-06
2.3095554336287347e-06
-9.631461370675562e-06
3.6785553397165057e-06
-1.0751380606854575e-05
2.035303069022838e-06
-9.002596376123303e-06
3.6683839873006644e-06
-1.139813657088217e-06
7.8127125940148e-06
2.5441127495256897e-06
4.696133348594609e-06
5.624551032312262e-06
5.088402319273368e-06
8.76989032802836e-06
1.7469532547781967e-06
1.2225662972031122e-05
3.9435760869783295e-06
9.017095010947816e-06
4.589811413703228e-06
5.532109126501855e-06
5.8301728152384914e-08
-1.6075468046963297e-06
-3.740719934524704e-06
-3.8613413812999715e-06
-9.609080894524842e-06
-2.819447806228731e-06
-1.3888953065362263e-05
-1.1116077918298644e-05
-1.1559490479533113e-05
-1.515478779222355e-05
-2.3177082252488785e-06
-1.3940703248905209e-05
-6.822668665166739e-07
-7.906797168405324e-06
3.7632103582899118e-06
-1.159094037737072e-05
5.524079468582232e-06
-8.061681354774821e-06
-1.3399007690138166e-06
-1.0405132875856012e-05
1.1487862216442013e-07
-9.765582325919761e-06
3.0588698355342046e-06
-6.3373682000280905e-06
3.251013172844179e-06
-9.278679380836529e-06
1.0351715401084592e-05
-1.1195703842593641e-05
9.31874800530794e-06
-7.211761175302794e-06
-2.9037608351666977e-06
-5.7732717986549825e-06
-1.0410399082892774e-05
-1.9089344477026125e-07
-8.698841972460679e-06
2.029627258558395e-06
-1.2423849645330918e-05
2.2641482856266542e-06
-1.2192330309418407e-05
8.956857001517801e-06
-9.350886848784009e-06
9.612475386367992e-06
-8.009985153851284e-06
1.0499635099442277e-05
-2.2232453712021784e-06
8.603350817623317e-06
0.0
0.0
0.0
0.0
0.0
0.0
0.0
0.0
0.0
0.0
0.0
0.0
0.0
0.0
0.0
0.0
0.0
0.0
0.0
0.0
0.0
0.0
0.0
0.0
0.0
0.0
0.0
0.0
0.0
-0.0
-2.735746399117085e-05
4.330632129383507e-06
-2.734056108967539e-05
9.342832510757364e-06
-2.7808058850376218e-05
6.005917613885712e-06
-3.1338487604297424e-05
3.766386046775047e-06
-2.979937693241e-05
-1.3726405042215467e-06
-2.691795434934552e-05
-3.6014353877900802e-06
-2.649434217212796e-05
-1.0423645608354824e-05
-2.4305979371578704e-05
-1.5063438461682197e-05
-2.1772615918780948e-05
-1.4058343268514518e-05
-1.821603355817859e-05
-8.395115444580858e-06
-1.3001093153234595e-05
-8.380341443701364e-06
-6.1421867756773505e-06
-3.1331399081808424e-06
-8.17353075566285e-06
1.5513042787021627e-06
-3.898947680160865e-06
3.817063660779969e-07
2.7780936334032578e-06
-6.273960240944595e-06
2.3133748379584494e-06
-8.403634295585745e-06
5.745806976156303e-06
-1.574612825049931e-05
1.7924564843821087e-06
-2.4356082906435693e-05
-2.042476682183609e-06
-2.3560771408949635e-05
-1.1650171893175882e-05
-2.5013204291237182e-05
-2.3147680041523348e-05
-2.407761134477393e-05
-2.5931685734857047e-05
-1.5098038380221419e-05
-3.266712023034667e-05
-1.4599494769865874e-05
-3.3043775159178316e-05
-1.3490798091126306e-05
-3.127646304882986e-05
-8.827735320983014e-06
-3.0476201089788576e-05
-5.939651549572155e-06
-2.69621591718193e-05
-1.2252720669417965e-05
-2.7130082930725346e-05
-1.0865139207810625e-05
-2.8025261095497453e-05
-7.450567262532572e-06
-2.794590813110936e-05
-1.031207690684676e-05
-2.5464300961253463e-05
-1.0920661577262649e-05
-1.8386603754983108e-05
-8.523489194448885e-06
-6.628808147660104e-06
-5.679149820010265e-06
7.022224380025327e-06
-6.72999764620274e-06
2.436627236050008e-05
-4.9913796908123325e-06
4.123049597965708e-05
-5.488619397079344e-06
5.581255458376286e-05
0.0
0.0
0.0
0.0
0.0
0.0
0.0
0.0
0.0
0.0
0.0
0.0
0.0
0.0
0.0
0.0
0.0
0.0
0.0
0.0
0.0
0.0
0.0
0.0
0.0
0.0
0.0
-0.0
6.302254166273268e-06
6.089235114217234e-06
4.9337097177092e-06
9.338394800135696e-06
2.4009984745992217e-06
6.272414752539099e-06
-8.815523277000062e-06
9.420207062172604e-06
-1.1210773042353517e-05
9.100775386054736e-07
-1.2553287556343232e-05
1.906169628525094e-06
-7.9537156717822e-06
1.6305378710779238e-06
-6.026263567401246e-06
1.966217274332794e-06
-1.8272692721973184e-06
-4.261273281354445e-06
3.923002701152465e-06
-2.5500862910431304e-06
7.6208841157777146e-06
-1.1448591993490529e-07
8.306554108867978e-06
-4.335631193358091e-06
5.681354847641914e-06
2.366181893225308e-06
6.836135931371186e-07
-1.0362464747230042e-06
8.932297441859695e-07
-7.246883039010348e-06
-3.222085453040225e-06
-1.4643622278418039e-05
-7.284613879534229e-06
-1.5162167927918763e-05
-1.0058356825901318e-05
-1.0719692168771979e-05
-8.911103297495879e-06
-9.839996550814636e-06
-7.698268547235573e-06
-3.7808544452726954e-06
-8.066586170542373e-06
6.046402805530358e-07
-8.85007688012487e-06
3.973157082485055e-06
-5.693544413912511e-06
-2.7418542180197324e-07
-1.0874564485706363e-05
-4.5941736582762635e-07
-6.79301598702041e-06
7.358376314622005e-06
-5.777700287121421e-06
6.908846971142766e-06
-1.0035148823374429e-05
1.382789918749166e-05
-1.0429438542642563e-05
8.697928930039654e-06
-1.2706141462219897e-05
2.1498530032681688e-06
-1.3107525396024037e-05
1.361905825544273e-06
-2.5370137961593084e-06
-5.897294485763405e-06
-3.136765200830747e-06
-6.442010417282117e-06
-7.85335287220027e-07
-1.3626533395422055e-05
4.9070330694777835e-06
-1.4397992356525217e-05
5.176986510277546e-06
-7.229747479184732e-06
1.2247881408925148e-05
-4.800149268678163e-06
8.832709954926729e-06
-3.5142868164013077e-06
4.122749493085676e-06
0.0
0.0
0.0
0.0
0.0
0.0
0.0
0.0
0.0
0.0
0.0
0.0
0.0
0.0
0.0
0.0
0.0
0.0
0.0
0.0
0.0
0.0
0.0
0.0
0.0
-0.0
-1.5253467191319568e-05
3.0238869569290178e-06
-2.3613739619759324e-05
4.695400114855905e-06
-2.3942769597636994e-05
7.803006692903232e-06
-2.821809885174713e-05
5.713042162766578e-06
-3.2081113909326795e-05
1.004186936164469e-06
-3.800969165665765e-05
-1.6611080788168713e-06
-3.344061381471526e-05
-8.246225909137417e-06
-3.318619228096202e-05
-1.1199200360536035e-05
-2.7101205914741554e-05
-1.4739508533819798e-05
-1.6753705497880022e-05
-1.481093694093199e-05
-1.1671362848282168e-05
-1.3874401732982573e-05
-6.970664771972577e-06
-9.325843906640952e-06
-1.2396449888013826e-06
-2.2534627492952744e-06
-3.841835901272296e-06
4.7192689761970105e-06
-1.4485577146357913e-06
1.4743371294857883e-06
1.5966330451460948e-06
-2.6483684768241393e-06
1.121181092968901e-06
-7.188126464869063e-06
3.2799517595898555e-06
-1.3886080882989966e-05
8.146056963453817e-06
-2.1863872444930086e-05
3.398003299862376e-08
-2.7375230590429585e-05
-1.417960057881344e-05
-3.037072142811186e-05
-2.437570354652644e-05
-2.232301049568765e-05
-3.101410792546364e-05
-1.8559312274561007e-05
-3.602234579692343e-05
-2.1847391371053576e-05
-3.4134094617907844e-05
-2.0284087919106966e-05
-3.578794669932462e-05
-1.1400021707611258e-05
-2.402376352301914e-05
-8.763631894832316e-06
-2.6962083500209833e-05
-1.1843666171646677e-05
-2.437839351976537e-05
-1.2876974245800152e-05
-2.5286781562304273e-05
-1.7321187935627553e-05
-2.427154501533885e-05
-1.7385764036166732e-05
-2.5681753646588282e-05
-1.4171677113853448e-05
-2.425450891181279e-05
-1.0997624549153957e-05
-1.4736449534904373e-05
-7.417503055851661e-06
-1.4337970689558654e-07
-9.97452980152775e-06
1.6808568180051784e-05
-1.1870584939406058e-05
3.115676493448902e-05
-2.497396623296765e-06
4.319001511329576e-05
-2.2689611670995764e-06
4.306471079433363e-05
0.0
0.0
0.0
0.0
0.0
0.0
0.0
0.0
0.0
0.0
0.0
0.0
0.0
0.0
0.0
0.0
0.0
0.0
0.0
0.0
0.0
0.0
0.0
-0.0
1.7129012523588647e-05
6.594979347922095e-06
8.957476070325854e-06
1.140491275251962e-05
4.565972473132101e-06
1.3140407410061013e-05
-2.328115912739855e-06
1.5673485138041373e-05
-8.263391233488259e-06
1.022394644845904e-05
-1.06202880212116e-05
6.453867053993683e-06
-1.1494809313382507e-05
2.40173313959464e-06
-7.60604924445535e-06
3.2836376451154966e-06
-7.4441345036378945e-06
5.126554205713895e-06
-4.340278839820624e-06
2.3725225263415604e-06
1.956221225960882e-06
-5.016933129507498e-07
4.780068310020411e-06
-1.9959797761299225e-06
2.2539419758487296e-06
-8.603792695768322e-07
3.1958085684531268e-06
-2.644325608587707e-06
-7.883848405844274e-07
-7.007907693414514e-06
-3.2853459506168036e-06
-9.880967280259974e-06
-5.20753210796365e-06
-1.6148771245115063e-05
-6.485393279479338e-06
-1.7839682147520128e-05
-1.1594821281889064e-05
-1.4306708747529004e-05
-6.7920506544063044e-06
-9.91589012653816e-06
8.109945295648333e-07
-9.961097162485556e-06
8.604923591369611e-07
-4.66612021222307e-06
-1.181460350117175e-06
3.379804734392512e-07
5.053468837567952e-07
-6.65317795558209e-06
-3.4778293041468075e-07
-3.4601650515433393e-06
-5.304412628865934e-06
6.024777065509591e-06
-3.7885499523381433e-06
9.661610625711973e-06
-3.5894367746282864e-06
1.3633800401586253e-05
-7.390106748161238e-06
9.106560115482298e-06
-1.2919515969175346e-05
7.760389628038672e-06
-1.2307306271826398e-05
5.462260589180599e-06
-8.34746416621997e-06
5.689237587744288e-06
-6.4870841896397575e-06
-2.2686772231905613e-06
-1.432141569690617e-06
-1.1974525732796948e-05
2.0065233812718642e-07
-1.2711340532917871e-05
4.240480846575188e-06
-1.1194997870572676e-05
7.2831897670589355e-06
-8.888178178540856e-06
5.549803501943151e-06
-2.1453230620543927e-06
4.809896759904812e-06
2.554171370650265e-06
-6.463729608885426e-07
0.0
0.0
0.0
0.0
0.0
0.0
0.0
0.0
0.0
0.0
0.0
0.0
0.0
0.0
0.0
0.0
0.0
0.0
0.0
0.0
0.0
-0.0
5.400892345481084e-06
7.160168886071088e-06
-4.587128579050204e-06
4.4633881058864656e-06
-1.2908321520835383e-05
9.117970682929385e-06
-1.9139811480612328e-05
6.448023345585706e-06
-2.4472177409048815e-05
3.89419507489666e-06
-3.316394739714715e-05
-6.869032501394151e-07
-3.4306285171300175e-05
-4.20734889209809e-06
-3.2799379033805125e-05
-1.0678676832697644e-05
-3.062003925866872e-05
-1.2262734051389662e-05
-1.873928691265603e-05
-1.165702969126357e-05
-1.1103830491511799e-05
-1.2598310027711543e-05
-2.336652388459746e-06
-1.2001958266908021e-05
-8.370579616582061e-07
-6.4919467832574316e-06
4.21108610215928e-06
-3.135192055843218e-06
1.4782243701085979e-06
4.493352801001041e-06
1.7447728361423572e-06
7.872751025054623e-06
6.239371349217032e-06
7.868493114919108e-07
3.3296974858798743e-06
-5.027496948105412e-06
6.149117364179414e-06
-1.3750588576801306e-05
9.235971700479247e-06
-2.600351692599421e-05
-3.9260002043314386e-06
-3.266855321587473e-05
-1.8989528843043187e-05
-2.7808589762800254e-05
-2.687963296513675e-05
-2.5009239169753596e-05
-2.9792927046758947e-05
-2.1746708038290306e-05
-3.101155877493179e-05