# vtk DataFile Version 2.0
Acoustic field
ASCII
DATASET STRUCTURED_POINTS
DIMENSIONS 102 102 1
ORIGIN -0.01 -0.01 0
SPACING 0.0002 0.0002 1
POINT_DATA 10404
SCALARS pressure float 1
LOOKUP_TABLE default
0.0
0.0
0.0
0.0
0.0
0.0
0.0
0.0
0.0
0.0
0.0
0.0
0.0
0.0
0.0
0.0
0.0
0.0
0.0
0.0
0.0
0.0
0.0
0.0
0.0
0.0
0.0
0.0
0.0
0.0
0.0
0.0
0.0
0.0
0.0
0.0
0.0
0.0
0.0
0.0
0.0
-0.0
-0.0
-0.0
0.0
-0.0
0.0
-0.0
0.0
-0.0
-9.628744004123828e-06
0.0
0.0
0.0
0.0
0.0
0.0
0.0
0.0
0.0
0.0
0.0
0.0
0.0
0.0
0.0
0.0
0.0
0.0
0.0
0.0
0.0
0.0
0.0
0.0
0.0
0.0
0.0
0.0
0.0
0.0
0.0
0.0
0.0
0.0
0.0
0.0
0.0
0.0
0.0
0.0
0.0
0.0
0.0
0.0
0.0
0.0
0.0
0.0
0.0
0.0
0.0
0.0
0.0
0.0
0.0
0.0
0.0
0.0
0.0
0.0
0.0
0.0
0.0
0.0
0.0
0.0
0.0
0.0
0.0
0.0
0.0
0.0
0.0
0.0
0.0
0.0
0.0
0.0
0.0
0.0
0.0
0.0
0.0
0.0
0.0
0.0
0.0
0.0
-0.0
0.0
0.0
0.0
1.0199623912380711e-06
9.572511648777568e-06
-1.6236777337376139e-06
1.3358135426326073e-05
-1.691529017151328e-06
1.1403612844088869e-05
4.226174102493965e-06
7.328823500053287e-06
-7.050134631375833e-08
3.1921483489681887e-06
-1.1146951349529052e-07
-8.405395288345933e-07
8.236942850758727e-06
-1.7788008471195043e-06
6.42673430482116e-06
-1.2891149209247908e-06
9.027782742447058e-06
2.067909518519817e-07
1.050893238373467e-05
0.0
0.0
0.0
0.0
0.0
0.0
0.0
0.0
0.0
0.0
0.0
0.0
0.0
0.0
0.0
0.0
0.0
0.0
0.0
0.0
0.0
0.0
0.0
0.0
0.0
0.0
0.0
0.0
0.0
0.0
0.0
0.0
0.0
0.0
0.0
0.0
0.0
0.0
0.0
0.0
0.0
0.0
0.0
0.0
0.0
0.0
0.0
0.0
0.0
0.0
0.0
0.0
0.0
0.0
0.0
0.0
0.0
0.0
0.0
0.0
0.0
0.0
0.0
0.0
0.0
0.0
0.0
0.0
0.0
0.0
0.0
0.0
0.0
0.0
0.0
-0.0
0.0
-0.0
-2.719644200555919e-05
-9.465419539723196e-07
-3.084108652217088e-05
1.4168087023900023e-06
-2.760799985632553e-05
2.412525450570565e-06
-1.2648483139061608e-05
1.8565827890230215e-07
-4.086956297154742e-06
1.047468389358006e-06
-3.6729022409140838e-06
2.825432864818014e-06
-7.4191555240428845e-06
2.3447220850199202e-06
-7.14712526492281e-07
1.511685023155963e-06
1.6903563162237536e-06
1.3663835997245588e-06
-6.528528096178159e-07
1.3869306120911637e-06
5.523114049494774e-07
-4.178519642398805e-06
-1.1272692284603043e-06
-6.57590139645429e-06
4.15789056964713e-06
-1.140806118708305e-05
1.5877165536261967e-06
-1.0717275539159524e-05
0.0
-0.0
0.0
-0.0
0.0
0.0
0.0
0.0
0.0
0.0
0.0
0.0
0.0
0.0
0.0
0.0
0.0
0.0
0.0
0.0
0.0
0.0
0.0
0.0
0.0
0.0
0.0
0.0
0.0
0.0
0.0
0.0
0.0
0.0
0.0
0.0
0.0
0.0
0.0
0.0
0.0
0.0
0.0
0.0
0.0
0.0
0.0
0.0
0.0
0.0
0.0
0.0
0.0
0.0
0.0
0.0
0.0
0.0
0.0
0.0
0.0
0.0
0.0
0.0
0.0
0.0
0.0
0.0
0.0
-0.0
0.0
6.595782092868605e-06
9.391384442103178e-06
3.401493377988201e-06
8.631995003802888e-06
4.9618382777530135e-06
6.130358559711063e-06
4.7706060291006295e-06
4.523056936345677e-06
4.13887775064285e-06
6.507376103177579e-06
3.325925917551631e-06
1.3786041998583295e-05
5.880205876352729e-06
1.5698758126352882e-05
3.622807099898525e-06
1.3565771246481845e-05
2.625811027113639e-06
1.2768027659733464e-05
6.181927388868741e-06
7.457711971665585e-06
7.16036685290571e-06
3.998110443272006e-06
7.114583337666705e-06
1.70434482534558e-06
7.406905853302601e-06
-5.239445483964069e-06
5.572377673176326e-06
-7.3317944017296166e-06
1.1107949213432105e-06
-1.2317598226899132e-05
3.6451792327870896e-06
-1.4340262760829998e-05
6.717513749787081e-06
-7.529523371021907e-06
1.456905345345907e-07
0.0
0.0
0.0
0.0
0.0
0.0
0.0
0.0
0.0
0.0
0.0
0.0
0.0
0.0
0.0
0.0
0.0
0.0
0.0
0.0
0.0
0.0
0.0
0.0
0.0
0.0
0.0
0.0
0.0
0.0
0.0
0.0
0.0
0.0
0.0
0.0
0.0
0.0
0.0
0.0
0.0
0.0
0.0
0.0
0.0
0.0
0.0
0.0
0.0
0.0
0.0
0.0
0.0
0.0
0.0
0.0
0.0
0.0
0.0
0.0
0.0
0.0
0.0
0.0
0.0
-1.228023790140665e-05
-1.5915692713040614e-05
-2.7946032175691215e-06
-1.7438939657151735e-05
-3.461473140043783e-06
-2.569585086082488e-05
-3.575581143715964e-06
-3.071797286773769e-05
-4.137273705456647e-06
-2.740592884315672e-05
-1.4927804237880673e-06
-1.7421988200884567e-05
-4.1819639290527426e-07
-1.4555409398947672e-05
1.8516199939242167e-06
-1.4084449699924288e-05
7.42667739169854e-07
-1.083470762115075e-05
3.2642514276458803e-06
-3.155694695389563e-06
4.298199709682304e-06
1.5012498289421211e-06
4.928264666386833e-06
7.880369661050384e-07
1.043097055069873e-06
-1.848182497953688e-07
-4.2490774429724147e-07
-1.7859241123031435e-06
-5.3354304094938205e-06
3.4202475500737607e-06
-1.0599686834478153e-05
-1.0543413554304782e-06
-7.825555572335831e-06
-5.899344472973514e-06
-9.792850187448807e-06
-2.071398040564429e-06
-9.048031137378919e-06
3.3207960870134466e-06
-7.885888222710646e-07
0.0
0.0
0.0
0.0
0.0
0.0
0.0
0.0
0.0
0.0
0.0
0.0
0.0
0.0
0.0
0.0
0.0
0.0
0.0
0.0
0.0
0.0
0.0
0.0
0.0
0.0
0.0
0.0
0.0
0.0
0.0
0.0
0.0
0.0
0.0
0.0
0.0
0.0
0.0
0.0
0.0
0.0
0.0
0.0
0.0
0.0
0.0
0.0
0.0
0.0
0.0
0.0
0.0
0.0
0.0
0.0
0.0
0.0
0.0
-0.0
0.0
6.281434482867779e-06
4.189784784639865e-06
7.827878551983228e-06
5.8097386853893015e-06
6.772642086587497e-06
7.2954476411991645e-06
3.7058914176180084e-06
7.1762792761497055e-06
1.8752244978287022e-06
7.914187562092462e-06
3.6441722548424794e-06
5.724068513550149e-06
7.255259965697955e-06
8.52507773104506e-06
4.725491220952669e-06
1.0934515807967599e-05
4.068452216904869e-06
1.4406835356018557e-05
5.884380341822716e-06
1.4941603201228487e-05
2.927464469372248e-06
1.1653571936263129e-05
4.549478935311648e-06
1.3379699690597706e-05
1.070072316070268e-05
6.0291524789471755e-06
8.650466004487467e-06
3.1622243307918864e-06
1.0345862303638284e-05
-2.6992905910917976e-06
1.34318666231727e-05
-1.1131237829641793e-05
9.017371824510063e-06
-1.4540110354862374e-05
5.445089807451599e-06
-1.2467945407440262e-05
4.145908188786732e-06
-9.643632518252467e-06
2.5013734231718153e-06
-4.729754590597781e-06
6.58658828435749e-07
2.184404558770408e-06
7.283883323247986e-06
0.0
0.0
0.0
0.0
0.0
0.0
0.0
0.0
0.0
0.0
0.0
0.0
0.0
0.0
0.0
0.0
0.0
0.0
0.0
0.0
0.0
0.0
0.0
0.0
0.0
0.0
0.0
0.0
0.0
0.0
0.0
0.0
0.0
0.0
0.0
0.0
0.0
0.0
0.0
0.0
0.0
0.0
0.0
0.0
0.0
0.0
0.0
0.0
0.0
0.0
0.0
0.0
0.0
0.0
0.0
0.0
0.0
-9.789134844935166e-06
-1.1662461979982956e-05
-8.624641624795884e-06
-1.4033796005332767e-05
-9.61946047245862e-06
-2.0046983609022168e-05
-7.831308161575112e-06
-2.0999831566809783e-05
-6.019660716696398e-06
-2.4697614804054123e-05
-6.168804446723119e-06
-2.7906131487800652e-05
-5.719412990865126e-06
-2.685660410961164e-05
-2.7728439000596213e-06
-2.109094634515447e-05
-8.475980457547882e-07
-2.1807236743434792e-05
2.9879707446663276e-06
-2.1614837555446713e-05
2.08111457938331e-06
-1.2945469076095775e-05
5.046063617713239e-06
-7.855104093613178e-06
9.357552018218227e-06
-2.674816537263472e-06
6.409010215460638e-06
-1.869206796890578e-06
7.95720293001873e-06
1.0238322426200992e-06
2.4780097115690914e-06
7.81621188605049e-07
-1.4532508202706268e-06
1.2493838377947926e-06
-4.0182765932671595e-06
-3.11044240788234e-06
-7.341168520339524e-06
-4.530059979818713e-06
-4.409395308244925e-06
-2.5675052384710995e-06
-2.429692801272677e-06
-1.9871078426314405e-06
2.0296381441993017e-06
-4.079294566326367e-06
1.5402571821378512e-06
-1.7001382308764665e-06
3.430817473052847e-06
0.0
0.0
0.0
0.0
0.0
0.0
0.0
0.0
0.0
0.0
0.0
0.0
0.0
0.0
0.0
0.0
0.0
0.0
0.0
0.0
0.0
0.0
0.0
0.0
0.0
0.0
0.0
0.0
0.0
0.0
0.0
0.0
0.0
0.0
0.0
0.0
0.0
0.0
0.0
0.0
0.0
0.0
0.0
0.0
0.0
0.0
0.0
0.0
0.0
0.0
0.0
-0.0
0.0
6.155251027831871e-06
3.009714288260301e-06
1.3799595737858733e-06
6.049972272062019e-07
7.536627473709015e-06
5.3387511011127e-06
1.1976864253928735e-05
3.008445358407272e-06
9.379823250230323e-06
9.955060001834673e-07
7.44198452913194e-06
4.967653994254492e-06
6.220674202587378e-06
7.024408640296962e-06
3.9598543052669015e-06
6.168858857914224e-06
2.6708048068930097e-06
8.283390258398189e-06
3.917708001253784e-06
4.823943631397752e-06
3.2123743712899163e-06
1.170820378005208e-05
3.7216799229077365e-06
1.4887331541943706e-05
3.893862004120094e-06
9.540578266966563e-06
4.6321260130614695e-06
1.1343517424739298e-05
6.2015506984260946e-06
1.1373935598911686e-05
8.274333137516014e-06
3.766085783003171e-06
8.15948747461918e-06
-2.730474161488778e-07
9.21155433250476e-06
-3.9436951280219425e-06
8.907658508684476e-06
-6.859183504200494e-06
9.396927521505923e-06
-9.818867402247083e-06
5.161940385344955e-06
-6.806545190266952e-06
-7.292930397960268e-07
-6.939395234693757e-06
2.023167758959523e-06
5.4518435839262395e-08
5.2808152224264945e-06
4.701945998343169e-06
1.860046187496001e-06
1.120949809646872e-05
1.4726098335851288e-06
0.0
0.0
0.0
0.0
0.0
0.0
0.0
0.0
0.0
0.0
0.0
0.0
0.0
0.0
0.0
0.0
0.0
0.0
0.0
0.0
0.0
0.0
0.0
0.0
0.0
0.0
0.0
0.0
0.0
0.0
0.0
0.0
0.0
0.0
0.0
0.0
0.0
0.0
0.0
0.0
0.0
0.0
0.0
0.0
0.0
0.0
0.0
0.0
0.0
-2.046876079170079e-05
-6.671595020537244e-06
-1.4432471867499378e-05
-7.087208694085917e-06
-1.6003861304714923e-05
-8.001799521041383e-06
-1.844318460229343e-05
-1.3203555503944245e-05
-1.794051662820073e-05
-1.9601679733092377e-05
-1.4028635188714423e-05
-2.5075778393007463e-05
-1.0917458871790152e-05
-2.838817015157678e-05
-1.2153486477863466e-05
-3.096175448505285e-05
-1.4527524466387109e-06
-2.9825434896338166e-05
1.931787989224988e-06
-2.3222442673491632e-05
2.9172651986501738e-06
-1.581345050422772e-05
5.6646811947757e-06
-1.5319729901467673e-05
6.5916431981142985e-06
-1.2259575412694105e-05
1.148413814282888e-05
-1.0983542853881147e-05
1.0428182924084584e-05
-9.610364830320284e-06
7.876881935277494e-06
-7.896484149455183e-06
7.01039759689706e-06
-5.6518444253989885e-06
2.661589830478921e-06
4.959160009098859e-06
-3.962065507733804e-06
2.7954422359954606e-06
-4.0259229896411744e-06
-3.609779542397956e-07
3.1916759341349493e-06
-5.521824354668074e-06
2.2458406406183347e-06
-7.798897090479156e-06
3.0680366876419962e-06
-1.3115818875569347e-05
2.6365302189517544e-06
-1.1462603065272185e-05
2.6996333384065343e-06
-1.0216198700739287e-05
3.575695908319227e-06
-5.90696450762906e-06
6.1320019187940945e-06
3.2274732144656485e-07
6.495083215811561e-06
0.0
0.0
0.0
0.0
0.0
0.0
0.0
0.0
0.0
0.0
0.0
0.0
0.0
0.0
0.0
0.0
0.0
0.0
0.0
0.0
0.0
0.0
0.0
0.0
0.0
0.0
0.0
0.0
0.0
0.0
0.0
0.0
0.0
0.0
0.0
0.0
0.0
0.0
0.0
0.0
0.0
0.0
0.0
0.0
0.0
-0.0
-4.8588997723337706e-06
-4.0642473500854606e-06
1.633491055700375e-07
-6.158424313744589e-07
2.3842733139269537e-06
-5.699507346294029e-07
3.248966495512264e-06
5.125875811346161e-06
4.126675621908906e-06
7.851081310824086e-06
2.234650722764588e-06
5.0663991140169e-06
2.4883274912671346e-06
4.139228900846623e-06
-2.3741230890236924e-06
4.165553018744467e-06
-2.152032773420997e-06
2.820878375829867e-06
1.2217035287784548e-06
-1.421324799715019e-06
-2.4211907476774884e-07
-5.871537115824927e-07
2.5413940073111875e-06
-6.249982304969119e-07
5.415829228279359e-06
-3.207440570579074e-06
7.070930720376984e-06
2.584908303897062e-07
1.1149873826597296e-05
4.358860340975645e-06
1.6278198398662485e-05
3.4814264005131024e-06
1.4090713267449292e-05
6.912697948297824e-06
8.954469870929804e-06
9.052267434662392e-06
7.683440054891555e-06
8.028176015200946e-06
7.744496540553824e-06
7.417695344956345e-06
3.547457831500313e-06
8.8811714968901e-06
3.9442837928442565e-06
8.51500289132342e-06
2.358123518014992e-06
5.9140172116080785e-06
2.4419971308394084e-06
5.1306558243030715e-06
7.087925551167369e-06
1.7540002342814498e-06
9.113540161008235e-06
-2.908331394247382e-06
1.2540526436389281e-05
1.9855425525857577e-06
1.3678867512097648e-05
4.230042514459493e-06
2.081821876284377e-05
0.0
0.0
0.0
0.0
0.0
0.0
0.0
0.0
0.0
0.0
0.0
0.0
0.0
0.0
0.0
0.0
0.0
0.0
0.0
0.0
0.0
0.0
0.0
0.0
0.0
0.0
0.0
0.0
0.0
0.0
0.0
0.0
0.0
0.0
0.0
0.0
0.0
0.0
0.0
0.0
0.0
0.0
0.0
-1.4655356942444885e-06
-1.990454013850512e-05
-2.1590717369740533e-06
-2.7253569159197025e-05
-7.82078757776663e-06
-2.4515192566429004e-05
-7.687664580273796e-06
-2.7885985915101558e-05
-1.1099409711565437e-05
-2.5646198533101805e-05
-1.7434291783242583e-05
-2.487429099068857e-05
-2.1724714775178082e-05
-2.4134450473949053e-05
-2.5290295442161804e-05
-2.1071074778309127e-05
-3.0198263409068193e-05
-1.6875224115038614e-05
-3.149915685000699e-05
-9.231644852302287e-06
-2.84314339341348e-05
6.816460679623468e-07
-2.322294303441491e-05
1.699379113533591e-07
-2.230233068502663e-05
-2.0001885694367855e-06
-1.7535814970793176e-05
8.422294793089668e-06
-1.2228236075591203e-05
1.3254817905797783e-05
-9.654751328690751e-06
1.0082264930646354e-05
-9.612598971890513e-06
9.28623463633967e-06
-1.0915460403500968e-05
1.1782352864984416e-05
-3.1970317554846275e-06
7.389825935597539e-06
2.0453289301461598e-07
3.17397974828975e-07
-9.272161601383631e-07
1.6217773469610684e-06
-1.373946454609575e-06
5.916128640088519e-06
-6.105778813541976e-06
1.1127448417216757e-05
-9.706765986226408e-06
1.3437410646771714e-05
-9.963971050302018e-06
1.3888983837344151e-05
-1.050658011122732e-05
1.0338615909807232e-05
-1.483967344538183e-05
8.720940756423774e-06
-1.088979159077523e-05
1.102602597938224e-05
-3.192541976517634e-06
1.1684339161357169e-05
5.573691244918645e-06
1.2758932966344155e-05
0.0
0.0
0.0
0.0
0.0
0.0
0.0
0.0
0.0
0.0
0.0
0.0
0.0
0.0
0.0
0.0
0.0
0.0
0.0
0.0
0.0
0.0
0.0
0.0
0.0
0.0
0.0
0.0
0.0
0.0
0.0
0.0
0.0
0.0
0.0
0.0
0.0
0.0
0.0
0.0
0.0
6.552470696448631e-07
-5.704326110947497e-07
-3.2573742919181714e-06
-5.44502157998291e-06
-3.3188455733657305e-06
-2.3397986336165026e-07
-1.5412305279709594e-06
-2.8822987677362556e-06
-1.3735911382989202e-06
-2.608901680694107e-06
-3.551087799662328e-06
-1.2328583672722797e-06
1.0363341479461055e-06
-2.819410319962828e-06
9.248450743137782e-08
-3.7277678607212617e-06
2.0202838411530793e-06
-7.637935974547456e-06
3.64556392977061e-07
-1.0898526555291178e-05
-5.5588080046346903e-08
-1.2766718905738577e-05
-2.5096116098574787e-06
-9.152883272974362e-06
-7.166631990258735e-06
-6.6670564459479116e-06
-6.5146273927421335e-06
-1.4190524439836762e-06
-4.648080111426217e-06
5.0778869996604046e-06
-3.7806905049684085e-06
9.951286363477487e-06
-2.104314435981036e-06
1.623141485653824e-05
2.1150120428839533e-06
1.257637990563021e-05
5.912841503267215e-06
9.00924133473852e-06
6.215359706793976e-06
1.1236341848875886e-05
1.1522927667039303e-05
1.3566922717475311e-05
9.942354641503692e-06
1.09107331638909e-05
8.537142454206912e-06
1.396496375523082e-05
8.611237551023812e-06
1.8855896988753126e-05
4.969061263211082e-06
2.32523638393361e-05
4.598105827432564e-06
1.852388617123835e-05
5.78043774885264e-07
1.6555187861989247e-05
-4.372521968228822e-06
1.5328272670950038e-05
-4.469706064789004e-06
1.8583484541773063e-05
2.375366605095548e-06
1.8786686201119285e-05
-5.042626883934538e-07
1.33979535883696e-05
-4.492054076406161e-06
0.0
0.0
0.0
0.0
0.0
0.0
0.0
0.0
0.0
0.0
0.0
0.0
0.0
0.0
0.0
0.0
0.0
0.0
0.0
0.0
0.0
0.0
0.0
0.0
0.0
0.0
0.0
0.0
0.0
0.0
0.0
0.0
0.0
0.0
0.0
0.0
0.0
0.0
3.446819225976409e-06
-1.1019824591171184e-05
-1.2259994015744152e-06
-2.0554504699515795e-05
-4.487276062496271e-06
-2.6592743624276545e-05
-8.074458275805563e-06
-3.0039812872354993e-05
-1.1959027191074262e-05
-2.8269656358887444e-05
-1.3683034439428056e-05
-2.888589543038332e-05
-1.6371948612159005e-05
-2.875270444123671e-05
-2.2091746223521976e-05
-2.321204526638944e-05
-2.3508983446338677e-05
-1.7615706221267494e-05
-2.3518464750247517e-05
-1.3608032041203242e-05
-2.4091373494376523e-05
-3.914901918212533e-06
-1.8936231000277683e-05
3.9956969798699057e-07
-1.6685307629520457e-05
1.508579127965785e-06
-1.466235183823009e-05
3.91841186158337e-06
-1.507044101969042e-05
9.78722905725126e-06
-1.3172799398629642e-05
1.59931602927601e-05
-9.173572811459352e-06
1.2805002892143541e-05
-1.1289626504915576e-05
1.331715103512506e-05
-4.8715286182183085e-06
1.356685844581422e-05
-3.866093757186032e-06
1.1109592281514689e-05
-4.980834066990505e-06
6.853187255571613e-06
-7.949785655043479e-06
2.9860126617273294e-06
-6.119496072094744e-06
8.37920878084041e-06
-1.0708092919514625e-05
1.3515015548817522e-05
-1.2763015291106085e-05
1.9542834541510188e-05
-6.994759694697957e-06
2.4995675662942327e-05
-7.668391003550167e-06
2.4714521637446807e-05
-9.474862563012308e-06
1.8313807435920116e-05
-1.0295501220175807e-05
1.3766639558271063e-05
-3.9455561608375735e-06
1.4910474919667982e-05
4.966644629058258e-06
1.1083529486673145e-05
8.528372629133055e-06
3.961089925277981e-06
1.05411078513655e-05
0.0
0.0
0.0
0.0
0.0
0.0
0.0
0.0
0.0
0.0
0.0
0.0
0.0
0.0
0.0
0.0
0.0
0.0
0.0
0.0
0.0
0.0
0.0
0.0
0.0
0.0
0.0
0.0
0.0
0.0
0.0
0.0
0.0
0.0
0.0
-0.0
-3.5832789721139035e-06
-9.728161276253533e-08
-5.989933599465704e-06
-3.3074777432433046e-06
-8.109652068095648e-06
-4.948603956654636e-06
-5.4810315718395265e-06
-4.481793351205811e-06
-1.2180913190910175e-06
-1.1620014100487072e-06
-2.8402217892381138e-06
-1.92960076306659e-06
-3.914624533408181e-06
-5.953188172151224e-06
-5.614679858842183e-06
-8.405439394654828e-06
-3.5032835724537552e-06
-1.1937866467550776e-05
-2.321180730695936e-06
-1.567087624587226e-05
-3.1041946020233097e-07
-1.7308756297214563e-05
-7.848465110457095e-06
-1.516793528650182e-05
-9.420382847095739e-06
-1.4968288771960349e-05
-5.495252123214278e-06
-1.100196595854917e-05
-8.176383219741765e-06
-2.0828656889591704e-06
-5.8919923538544294e-06
3.2031995618130463e-06
-3.5171660689001835e-06
9.010263152611615e-06
-3.0027233499708615e-06
1.8556908853139645e-05
-3.847866669044339e-07
1.4935427411959492e-05
-1.6110155497652094e-06
1.265309525153565e-05
4.9427759095924505e-06
1.5809981811719745e-05
8.87330857852233e-06
1.7883049436980434e-05
7.1750419465975015e-06
1.76790898823297e-05
1.0850703834992717e-05
2.5526212295881967e-05
1.0679619322420754e-05
2.96336723948153e-05
3.2416836827512866e-06
3.198501385083048e-05
-1.3826547298980507e-06
3.871408373256527e-05
4.676684609193461e-06
3.222108610840386e-05
-1.958052104124152e-06
2.8372275907650007e-05
-3.9800657579835175e-06
2.4914402360295356e-05
-3.439925211249282e-07
2.0497623423407418e-05
6.723658254444644e-08
1.2132620819928751e-05
1.6411379107386457e-06
3.293318299241002e-06
5.6611774874903765e-06
0.0
0.0
0.0
0.0
0.0
0.0
0.0
0.0
0.0
0.0
0.0
0.0
0.0
0.0
0.0
0.0
0.0
0.0
0.0
0.0
0.0
0.0
0.0
0.0
0.0
0.0
0.0
0.0
0.0
0.0
0.0
0.0
0.0
0.0
6.71680947389808e-06
-6.392904635063743e-06
-4.025583123544532e-09
-1.7203041687998585e-05
-2.1863024289869065e-06
-2.7242103944343995e-05
-1.003075143127437e-06
-2.4535798259464655e-05
-2.0174684246742937e-06
-3.103226510295178e-05
-9.879271279835904e-06
-3.1617544835588936e-05
-1.5146811352333438e-05
-2.9157872931093626e-05
-1.7474644915304562e-05
-2.5878245421512464e-05
-1.619394099691502e-05
-2.3739044612053534e-05
-1.706698518081455e-05
-1.611470250056462e-05
-1.5057264109198736e-05
-6.800411113691614e-06
-1.0723818998364623e-05
-5.775409019649494e-06
-1.047013025498201e-05
4.025884652845919e-06
-8.067288470690724e-06
9.52811243466409e-06
-8.357553416486824e-06
1.0321136770250012e-05
-9.271263503510407e-06
1.5668967115717472e-05
-7.120812904301035e-06
2.1524203402327515e-05
-3.5521094925215368e-06
1.8311434805971787e-05
-6.606392833934806e-06
1.3699789672277662e-05
-7.116983981955189e-06
1.753028676426019e-05
-6.420543760885589e-06
9.752055613066375e-06
-8.126839318511275e-06
2.9058759346007286e-06
-1.5105639213500822e-05
4.451441730944098e-06
-1.57054122870873e-05
6.3743734584032245e-06
-1.583270288733501e-05
1.4963636199941863e-05
-9.652146486496544e-06
2.2587363658808662e-05
-8.835185600513283e-06
2.752071409676424e-05
-4.52204576898704e-06
3.157562518752912e-05
1.385159742705956e-06
2.8006134959173027e-05
-4.518250163471424e-06
1.7828901974743158e-05
-3.506343385234402e-06
1.2917052335901614e-05
4.625297119858152e-06
1.23603065041866e-05
1.4970123709163108e-05
5.491780921633644e-06
1.6963555825732987e-05
3.910642999027823e-06
2.180183171488618e-05
0.0
0.0
0.0
0.0
0.0
0.0
0.0
0.0
0.0
0.0
0.0
0.0
0.0
0.0
0.0
0.0
0.0
0.0
0.0
0.0
0.0
0.0
0.0
0.0
0.0
0.0
0.0
0.0
0.0
0.0
0.0
-0.0
-3.07563498679065e-06
-8.034905313393085e-06
-7.497988063881379e-06
-4.9016432522019085e-06
-7.4940025422019435e-06
-3.6674034384590057e-06
-7.287897090129058e-06
-6.8422130065217616e-06
-5.5732651172552e-06
-4.5902991497854017e-07
-6.874008864269918e-06
-1.647489311434444e-06
-8.109814237321474e-06
-1.7592633262995079e-06
-1.0010268066480288e-05
-1.0036875733867416e-05
-6.594608866501065e-06
-1.1995192502892581e-05
-3.5300125954518863e-06
-1.339027387838272e-05
-5.158346117552417e-06
-1.363345521459254e-05
-3.6289669599763685e-06
-1.7661621045548436e-05
-3.788920426530668e-06
-1.5615730649141283e-05
-4.911493043098754e-06
-1.1248452639163974e-05
-4.8276042932554875e-06
-1.1798335258769156e-05
-5.065876273628782e-06
-4.536538824614328e-06
-2.204806349804532e-06
3.4485513555820863e-06
5.167686125550627e-07
7.82740227228167e-06
-2.411354184563899e-06
1.4992584638308094e-05
-3.386288801240887e-06
1.924088341133893e-05
-3.79005605819319e-06
1.674868117508068e-05
9.410458933016322e-08
1.8849095367489146e-05
3.2073648019621207e-06
2.186075423485403e-05
4.090466421134311e-06
2.6003769248723373e-05
3.2927129507484557e-06
3.1795498199664245e-05
7.688280079455218e-06
3.939280437075305e-05
4.337442732792815e-06
4.19548322588796e-05
3.0187273306499354e-06
4.033643578012854e-05
1.489581510458404e-06
3.984626428621447e-05
3.605371609418302e-06
3.760259994716352e-05
-2.743959711180225e-06
2.9460636968528388e-05
2.2957239430581603e-06
2.188374946415909e-05
7.606263340930719e-06
1.642628768549804e-05
7.067885656578755e-06
8.321097958490221e-07
8.493983657134026e-06
-1.1971539740681367e-06
1.0816798116168054e-05
0.0
0.0
0.0
0.0
0.0
0.0
0.0
0.0
0.0
0.0
0.0
0.0
0.0
0.0
0.0
0.0
0.0
0.0
0.0
0.0
0.0
0.0
0.0
0.0
0.0
0.0
0.0
0.0
0.0
0.0
5.6803921862715165e-06
-2.942237128305523e-06
8.551940871106374e-06
-8.987460226651814e-06
2.1538608006583576e-06
-2.087108133394868e-05
2.875483311288527e-06
-2.3310013174252415e-05
6.348129734891363e-06
-2.786083683177376e-05
5.062818498776969e-07
-2.9442907073272576e-05
-7.553283954420928e-06
-3.096555826424028e-05
-1.377636422497262e-05
-2.5649947516581337e-05
-1.2495304103168553e-05
-2.1843999534139668e-05
-9.348342430249218e-06
-1.752916410795262e-05
-1.1396367599618326e-05
-1.2722391305487361e-05
-1.5192267455590125e-05
-7.3066537667398605e-06
-7.707538586125996e-06
1.0602457034718335e-06
-5.0336946675049265e-06
8.443026170529323e-06
-2.6240795784784866e-06
1.2818124416855394e-05
2.7830783438041112e-06
1.5255465332068338e-05
3.5584526545509863e-06
1.728038653416717e-05
-1.3461644168998436e-06
2.001926218193801e-05
-6.887765150291852e-06
1.6635488790898506e-05
-9.987389570172904e-06
1.658095659000708e-05
-1.3423839396895833e-05
1.3759104430885399e-05
-8.406901192610806e-06
4.996370031152782e-06
-8.619154928602167e-06
1.4687498426088e-06
-1.2233393769725412e-05
1.1393128941456715e-06
-9.387455787898363e-06
5.66448681440674e-06
-6.704801501877059e-06
8.733428524083483e-06
-1.141277148067131e-05
1.7162586282794725e-05
-1.2960496765916362e-05
2.589107225288841e-05
-8.471656069779211e-06
3.0431196960504052e-05
-1.482703547497953e-06
2.9912417216966776e-05
2.4442039762255135e-06
2.0986308870671686e-05
-1.0765013210655883e-06
1.945793594575096e-05
8.136734098251057e-06
1.6783407007279735e-05
1.4919378886881642e-05
1.1034141683684343e-05
2.2163722033779623e-05
7.860128907314525e-06
2.5962732490767975e-05
-1.7479569166573855e-06
2.979106829876848e-05
0.0
0.0
0.0
0.0
0.0
0.0
0.0
0.0
0.0
0.0
0.0
0.0
0.0
0.0
0.0
0.0
0.0
0.0
0.0
0.0
0.0
0.0
0.0
0.0
0.0
0.0
0.0
-0.0
-6.252413017153738e-06
-7.167883810579089e-06
-6.099943472042861e-06
-7.5116706132714745e-06
-7.505215652179631e-06
-4.925642039601727e-06
-5.6607617345070165e-06
-1.7701553313395017e-06
-5.049997088310081e-06
-6.051878811569798e-06
-7.515961839074399e-06
-6.199858728301672e-06
-7.263508654576815e-06
-4.706968972301403e-06
-9.92676683338785e-06
-8.114719593855449e-06
-8.558348680247978e-06
-1.2300306174269534e-05
-9.776810368646167e-06
-1.4692142818884438e-05
-5.072061345659569e-06
-1.4246172526338377e-05
-1.5361586049149717e-06
-1.8352696668191854e-05
-1.6502865555507907e-06
-1.72463165878267e-05
-1.1983964996656118e-06
-1.7759916007402214e-05
-1.5345802038083921e-06
-1.3505510157706402e-05
3.8711742656389034e-07
-1.2702152970356225e-05
1.0255773967376803e-06
-5.990703977454144e-06
3.0485989494974043e-07
-4.094133482945591e-06
-9.84718318074463e-07
1.124457997948262e-06
-3.1816103318143884e-06
9.24742003860548e-06
-1.8775219308302426e-06
1.5203553823797264e-05
-3.1182853039508013e-06
1.4939411085690444e-05
-3.4715629328937643e-06
1.7283589630908725e-05
-1.4007854504341577e-06
2.2413640771739573e-05
1.4855677036491521e-06
2.5831017640512756e-05
3.517399991386547e-07
3.6873713279963174e-05
9.760517934543478e-06
4.663072494961407e-05
7.874817640537334e-06
4.321484563194674e-05
-1.0032865195819784e-06
4.12428681593268e-05
2.4324808829864668e-06
3.748003928489627e-05
4.997929251892777e-06
4.063892364284307e-05
4.158854317969311e-06
3.289955003184459e-05
5.59679864041423e-06
2.3225010697046546e-05
1.1045172683355803e-05
1.9943625788847986e-05
1.0880113300846082e-05
1.251001069966502e-05
1.2831183407085776e-05
2.7750108997539677e-06
1.2039990272429708e-05
-2.4149095646825056e-06
1.411630119017152e-05
0.0
0.0
0.0
0.0
0.0
0.0
0.0
0.0
0.0
0.0
0.0
0.0
0.0
0.0
0.0
0.0
0.0
0.0
0.0
0.0
0.0
0.0
0.0
0.0
0.0
0.0
8.513862283255916e-06
-4.411095091917396e-06
7.117293504928115e-06
-6.187578329073593e-06
1.530557849975833e-05
-1.429046822048289e-05
1.1178597757578728e-05
-2.8015648010144186e-05
7.172255275501588e-06
-2.729902522489457e-05
5.910269560934184e-06
-2.9943139359640718e-05
1.9103300992786346e-06
-3.17742340764247e-05
-6.441780472893792e-06
-2.8076659742336195e-05
-1.102080907234232e-05
-2.2994920929740494e-05
-1.0299320785824096e-05
-1.5486049403869197e-05
-6.917220108930812e-06
-1.5988605012539657e-05
-7.926432339507585e-06
-5.544117124626227e-06
-9.098628184122843e-06
7.08408916592393e-07
-3.522288425186985e-06
4.197069911219255e-06
-1.9294128269640745e-06
1.1747229142012898e-05
1.7308325140325324e-06
1.7788827877909716e-05
5.638439430819154e-06
1.76597961585919e-05
5.372299844718559e-06
1.4308139252208994e-05
8.200021420319898e-07
1.9486695133679482e-05
-2.8847813209118e-06
1.6616170899389202e-05
-4.203347753785921e-06
9.229663626933636e-06
-6.744726523955923e-06
9.081518536830478e-06
-1.4011065695724562e-06
5.352596707713456e-07
-3.9861918162615e-06
-4.648625592055665e-06
-5.310895797314835e-06
-9.14480208687351e-07
-6.6119507947745595e-06
1.9046986074111247e-06
-3.980208392135987e-06
5.571284244234193e-06
-4.943503753805463e-06
1.6019046359695427e-05
-7.2265364954866155e-06
2.6626695839411795e-05
-5.991997421975821e-06
2.7876963805440184e-05
1.621137000711798e-06
3.236964754723704e-05
8.312626286388158e-06
3.1866356345866026e-05
3.876718360739588e-06
2.4818848166396924e-05
1.7784065545127618e-06
2.1188212952770653e-05
1.1682873348752478e-05
1.5243738034017275e-05
1.856195051919622e-05
7.5354978234119286e-06
2.421283872379319e-05
1.1877871115791825e-06
2.4033573803564307e-05
-1.6250528608401711e-06
1.5551750305682345e-05
0.0
0.0
0.0
0.0
0.0
0.0
0.0
0.0
0.0
0.0
0.0
0.0
0.0
0.0
0.0
0.0
0.0
0.0
0.0
0.0
0.0
0.0
0.0
-0.0
-2.2139967637414555e-06
-2.9179882052654844e-06
-4.760428321112793e-06
-3.846606247658861e-06
-6.4494126362369085e-06
-5.050976433887359e-06
-8.688525458609294e-06
-3.0673018860696564e-07
-6.925382110504965e-06
9.413444437770426e-07
-6.228009943560799e-06
-2.4797082915368345e-06
-1.0049041897318768e-05
-7.109450725815622e-06
-7.252202365183541e-06
-1.310822438737234e-05
-9.605540331167842e-06
-1.2686522717900492e-05
-7.602435394731672e-06
-1.1653750746326014e-05
-5.711455900925355e-06
-1.8844277019381275e-05
-9.820327917387104e-06
-2.3435711276087794e-05
-3.460564025980043e-06
-2.2213705476270716e-05
5.202521945629536e-06
-1.9815218385848253e-05
3.6698897050366685e-06
-1.7899141835686583e-05
4.044444741424801e-06
-1.112999510153626e-05
8.430209916137936e-07
-8.494425523689012e-06
1.4509675249090596e-06
-6.556513806185116e-06
-2.112715062782988e-07
-4.264476964076781e-06
-7.106697056831319e-07
-7.776183711929535e-07
-1.6019416103561573e-06
6.647805614663393e-06
-1.2563375061766502e-06
7.030384301085497e-06
-3.1339502158987717e-06
8.363392906933342e-06
-6.315504816616302e-06
8.68518113041729e-06
-4.113852355567465e-06
1.4488312039887741e-05
-5.4910334109893585e-06
1.867617163655213e-05
-3.3288789953112335e-06
2.9148704176233945e-05
1.723012736340636e-06
4.1329485064474756e-05
-4.1460116081113277e-07
4.362928168979439e-05
1.4531205208242213e-06
4.2518329458106245e-05
4.127221794694864e-06
4.2988507989159366e-05
2.4520763116496217e-06
4.0564371193484505e-05
1.6975708302864394e-06
3.2047794818679975e-05
8.02783563480479e-06
2.2094655233596844e-05
9.40627085182968e-06
2.4449837334339095e-05
1.0665807112257491e-05
2.061973915567454e-05
1.1679176902457348e-05
8.577815403224622e-06
1.3295976442719306e-05
5.730701916237363e-06
1.6446259896961514e-05
3.1614680487441996e-06
1.7842990805735982e-05
0.0
0.0
0.0
0.0
0.0
0.0
0.0
0.0
0.0
0.0
0.0
0.0
0.0
0.0
0.0
0.0
0.0
0.0
0.0
0.0
0.0
0.0
9.06568673265834e-06
-6.113882700738206e-06
9.12344084678809e-06
-1.2370612360068892e-05
6.399501439719845e-06
-9.979659781232807e-06
1.2533220384681023e-05
-1.9903903427937222e-05
1.4070089148388001e-05
-2.242907100050492e-05
8.539125511876372e-06
-2.492709956709157e-05
4.362891195502094e-06
-2.6719791314664097e-05
1.3741341483734718e-06
-2.9741506407970888e-05
-4.052438094786884e-06
-2.205669308751637e-05
-5.494597254552245e-06
-1.1103816763700327e-05
-2.6598122445810967e-06
-6.389650230944159e-06
7.908443462248692e-07
-6.5628609683784486e-06
-2.058221186342831e-07
1.7673563758746956e-06
3.638807075516828e-06
8.989609231174144e-06
9.338927991243595e-06
1.4275138366645576e-05
8.60755883186605e-06
1.9771563644635943e-05
7.5339837430094726e-06
2.213271973418318e-05
9.049081111466616e-06
1.8780792762361514e-05
7.55722563513907e-06
1.864950641858564e-05
6.213497570951493e-06
1.9577479025989494e-05
5.4246527451368135e-06
1.2355698727927495e-05
2.197522406529739e-06
2.441995507103015e-06
-3.931195840944405e-06
-3.7265497502611988e-06
-4.533929990785353e-06
-8.474892920868696e-06
-3.833183664712775e-06
-8.812454406944606e-06
-1.1235058465006057e-06
-1.0198936130247396e-05
-4.85055695383951e-06
-5.51745817736242e-06
-3.282017339113927e-06
9.048899242479951e-07
-4.339857422223815e-06