# vtk DataFile Version 2.0
Acoustic field
ASCII
DATASET STRUCTURED_POINTS
DIMENSIONS 102 102 1
ORIGIN -0.01 -0.01 0
SPACING 0.0002 0.0002 1
POINT_DATA 10404
SCALARS pressure float 1
LOOKUP_TABLE default
0.0
0.0
0.0
0.0
0.0
0.0
0.0
0.0
0.0
0.0
0.0
0.0
0.0
0.0
0.0
0.0
0.0
0.0
0.0
0.0
0.0
0.0
0.0
0.0
0.0
0.0
0.0
0.0
0.0
0.0
0.0
0.0
0.0
0.0
0.0
0.0
0.0
0.0
0.0
0.0
0.0
0.0
0.0
0.0
0.0
0.0
0.0
0.0
0.0
0.0
-3.5770468329175373e-06
0.0
0.0
0.0
0.0
0.0
0.0
0.0
0.0
0.0
0.0
0.0
0.0
0.0
0.0
0.0
0.0
0.0
0.0
0.0
0.0
0.0
0.0
0.0
0.0
0.0
0.0
0.0
0.0
0.0
0.0
0.0
0.0
0.0
0.0
0.0
0.0
0.0
0.0
0.0
0.0
0.0
0.0
0.0
0.0
0.0
0.0
0.0
0.0
0.0
0.0
0.0
0.0
0.0
0.0
0.0
0.0
0.0
0.0
0.0
0.0
0.0
0.0
0.0
0.0
0.0
0.0
0.0
0.0
0.0
0.0
0.0
0.0
0.0
0.0
0.0
0.0
0.0
0.0
0.0
0.0
0.0
0.0
0.0
0.0
0.0
0.0
0.0
0.0
-0.0
0.0
-0.0
0.0
1.3674464599426601e-05
7.83645780526099e-06
9.897287497908964e-06
2.3618928957621516e-05
1.2516319111010637e-05
2.892829023803683e-05
1.0941036010421867e-05
1.9146494987846653e-05
7.129630755801751e-06
9.046107278100084e-06
6.238258607355777e-06
7.730149031194983e-06
5.5983862682798955e-06
4.106414031334123e-06
4.719113734971957e-07
-4.046313614380268e-06
2.556427240141214e-06
-3.793030896066044e-06
2.400349140027263e-06
0.0
-0.0
0.0
-0.0
0.0
0.0
0.0
0.0
0.0
0.0
0.0
0.0
0.0
0.0
0.0
0.0
0.0
0.0
0.0
0.0
0.0
0.0
0.0
0.0
0.0
0.0
0.0
0.0
0.0
0.0
0.0
0.0
0.0
0.0
0.0
0.0
0.0
0.0
0.0
0.0
0.0
0.0
0.0
0.0
0.0
0.0
0.0
0.0
0.0
0.0
0.0
0.0
0.0
0.0
0.0
0.0
0.0
0.0
0.0
0.0
0.0
0.0
0.0
0.0
0.0
0.0
0.0
0.0
0.0
0.0
0.0
0.0
0.0
0.0
0.0
0.0
0.0
0.0
-1.9679165895689986e-05
-1.16025156030977e-05
-2.3931062141881486e-05
-1.2954148375109882e-05
-1.3305926140582468e-05
-7.5768441307007536e-06
-1.8400962185018789e-06
-9.498808500460028e-06
2.8863524481112577e-06
-3.070634584491508e-06
7.212689847781924e-06
-2.386307626165301e-06
3.3286746150835542e-06
-1.01416027563632e-07
2.9612040796544405e-07
-1.721645153164964e-06
2.074264780452597e-06
-4.096793760487902e-07
2.0853889624785782e-06
-4.234618489415182e-06
7.626140532414216e-07
-3.874959538321151e-06
7.710543243224988e-06
-3.2184358066027974e-06
2.176727100238622e-05
-6.896354292004984e-06
1.6105330722832708e-05
1.9412094047268745e-06
0.0
-0.0
0.0
-0.0
0.0
0.0
0.0
0.0
0.0
0.0
0.0
0.0
0.0
0.0
0.0
0.0
0.0
0.0
0.0
0.0
0.0
0.0
0.0
0.0
0.0
0.0
0.0
0.0
0.0
0.0
0.0
0.0
0.0
0.0
0.0
0.0
0.0
0.0
0.0
0.0
0.0
0.0
0.0
0.0
0.0
0.0
0.0
0.0
0.0
0.0
0.0
0.0
0.0
0.0
0.0
0.0
0.0
0.0
0.0
0.0
0.0
0.0
0.0
0.0
0.0
0.0
0.0
0.0
0.0
-0.0
0.0
-1.4573640580321152e-05
2.4031284880785476e-08
-7.047371915007497e-06
1.6862868310931885e-06
3.532347494603588e-08
6.7668537446613585e-06
1.8588476455317781e-06
6.479568552786918e-06
8.767313068553314e-06
6.770987360008668e-06
1.0925395193769426e-05
1.54916982910876e-05
6.579192523481102e-06
2.1233937818117653e-05
7.868537003069978e-06
1.961479887545297e-05
7.375279471531389e-06
1.3557067748230273e-05
1.2320626064081584e-06
1.272625901592163e-05
5.4192679533209095e-06
5.635124635166411e-06
-2.6567336255042847e-07
1.3005705321822952e-06
-1.3500476366087874e-06
1.929161626696482e-06
2.062913126284918e-06
-4.643639052952328e-06
-3.835332860387141e-07
-5.025206920441978e-06
4.531169647762052e-06
-5.043006034054837e-06
1.797945949995375e-05
-4.122058660130365e-06
2.222749129685624e-05
0.0
-0.0
0.0
0.0
0.0
0.0
0.0
0.0
0.0
0.0
0.0
0.0
0.0
0.0
0.0
0.0
0.0
0.0
0.0
0.0
0.0
0.0
0.0
0.0
0.0
0.0
0.0
0.0
0.0
0.0
0.0
0.0
0.0
0.0
0.0
0.0
0.0
0.0
0.0
0.0
0.0
0.0
0.0
0.0
0.0
0.0
0.0
0.0
0.0
0.0
0.0
0.0
0.0
0.0
0.0
0.0
0.0
0.0
0.0
0.0
0.0
0.0
0.0
0.0
0.0
-7.746666572693092e-06
3.972900864099193e-06
-5.737488975428258e-06
-1.4845278985435676e-06
-7.772277580282833e-06
-1.2034109013142936e-05
-1.7208742322374724e-05
-1.3408499296710508e-05
-1.8573644227711436e-05
-1.300643178139286e-05
-1.5925962265987884e-05
-5.864361914499252e-06
-1.5710482212125424e-05
-6.618924385245915e-06
-1.085207904588037e-05
-4.117111952384827e-06
-4.922235532555239e-06
-2.0106575222246475e-06
-1.7154642886041346e-06
4.048926906388353e-06
1.2924090799281454e-06
5.575297802716722e-06
-2.5355359325347675e-06
7.638110507793272e-06
1.5115675384738067e-07
1.8262498061199602e-05
-1.8384191451267852e-07
1.7736013124617517e-05
6.910167479533068e-07
2.994744436672238e-05
-1.635349090155821e-06
2.5925415278632926e-05
-1.051094059258423e-06
1.75608422460145e-05
-1.4264870828760453e-07
1.6450875234567272e-05
-4.494400636535924e-06
1.828538769795844e-05
6.291032309731511e-07
0.0
-0.0
0.0
0.0
0.0
0.0
0.0
0.0
0.0
0.0
0.0
0.0
0.0
0.0
0.0
0.0
0.0
0.0
0.0
0.0
0.0
0.0
0.0
0.0
0.0
0.0
0.0
0.0
0.0
0.0
0.0
0.0
0.0
0.0
0.0
0.0
0.0
0.0
0.0
0.0
0.0
0.0
0.0
0.0
0.0
0.0
0.0
0.0
0.0
0.0
0.0
0.0
0.0
0.0
0.0
0.0
0.0
0.0
0.0
0.0
0.0
-1.580906296812302e-05
2.8119280784442033e-06
-9.913033090552933e-06
1.614438557673293e-06
-1.742244357805627e-05
-5.206801801993523e-07
-1.1197348356847283e-05
4.5993392893115445e-06
-4.034778031292397e-06
7.795922489138043e-06
-3.296358472574736e-07
1.1472592844948784e-05
1.852144095632584e-06
1.1367480837042535e-05
5.437639336750967e-06
1.450884626992737e-05
8.471849802232812e-06
1.843491320688709e-05
4.456592592047382e-06
1.782098087481285e-05
-1.1647774661348259e-07
1.5992976610152494e-05
3.300854880283776e-06
1.3633168103813948e-05
2.070816396808115e-06
1.120636701836094e-05
-1.695697178988007e-06
4.053015599357457e-06
6.079728640464397e-07
-1.196471329425224e-06
6.224321636086969e-06
-1.2408510074997987e-06
3.3637866866171995e-06
-4.585550379465486e-06
1.1592937420677121e-05
-9.928911941595988e-06
1.7821074122065698e-05
-5.589314057938358e-06
1.3888341302455858e-05
-4.043754497730866e-06
1.533874722122475e-05
3.2731820681279477e-06
2.5153789241617296e-05
-0.0
-0.0
0.0
0.0
0.0
0.0
0.0
0.0
0.0
0.0
0.0
0.0
0.0
0.0
0.0
0.0
0.0
0.0
0.0
0.0
0.0
0.0
0.0
0.0
0.0
0.0
0.0
0.0
0.0
0.0
0.0
0.0
0.0
0.0
0.0
0.0
0.0
0.0
0.0
0.0
0.0
0.0
0.0
0.0
0.0
0.0
0.0
0.0
0.0
0.0
0.0
0.0
0.0
0.0
0.0
0.0
0.0
-9.502469948525591e-06
7.57272325911945e-06
-4.229757963287308e-06
1.167682205712286e-05
-8.606183659196653e-06
9.362738368573893e-06
-7.95740395513556e-06
7.205540823870819e-06
-8.726421525678717e-06
2.845034525983867e-06
-1.5670054698197104e-05
1.8602714674437677e-06
-1.7968611601719517e-05
-4.2047128916673315e-06
-2.262831401307727e-05
-7.572116637359641e-06
-1.7980236875015344e-05
-9.705828843077753e-06
-1.2529780943287752e-05
-1.1285397767495502e-05
-1.0079572362771757e-05
-1.2137852265612854e-06
-2.6179387626229514e-06
8.937152709400476e-06
2.0676239458380225e-06
1.2931907022686288e-05
2.6604717101868896e-06
1.663006600365474e-05
3.1981417818659474e-06
2.277612538441143e-05
8.467616154066776e-06
2.7969894167925215e-05
4.8768352313088e-06
3.2078833401579586e-05
-5.669328929022015e-06
3.4160666111313445e-05
2.456786080502223e-06
2.9651983840123947e-05
3.0421057819283665e-06
3.437332907624825e-05
3.1750931188221765e-06
3.4730031168504295e-05
4.673570786980409e-06
2.3837764449229933e-05
7.23377273349968e-06
2.2320085788940086e-05
1.477642432460848e-05
0.0
-0.0
0.0
0.0
0.0
0.0
0.0
0.0
0.0
0.0
0.0
0.0
0.0
0.0
0.0
0.0
0.0
0.0
0.0
0.0
0.0
0.0
0.0
0.0
0.0
0.0
0.0
0.0
0.0
0.0
0.0
0.0
0.0
0.0
0.0
0.0
0.0
0.0
0.0
0.0
0.0
0.0
0.0
0.0
0.0
0.0
0.0
0.0
0.0
0.0
0.0
0.0
0.0
-1.4506361020033616e-05
-9.374720704795524e-07
-1.4178151244094895e-05
-1.1679983376885295e-06
-1.4040300852582963e-05
-5.599820826793109e-07
-8.12584553624264e-06
2.0727418217646866e-06
-1.4870208169942569e-05
5.073437408814526e-06
-8.819424567757754e-06
4.5100370900659285e-06
-7.772140362667584e-06
1.4154061327973282e-05
1.8879062948660661e-06
1.4905536452911358e-05
8.769503712419482e-06
1.3181612884906349e-05
7.053020989718151e-06
2.1246124373236627e-05
7.535537030915788e-06
2.4935069072656694e-05
8.310768579401377e-06
2.18641101130358e-05
2.2054418559808095e-06
1.7238036839975992e-05
2.7280545254089885e-06
1.9147188549935357e-05
-3.632378650685676e-06
9.600996878905742e-06
-6.5559385473973715e-06
6.595447675787867e-06
-4.939243392332216e-06
6.34525639468526e-07
3.7874897392030714e-06
-3.7430324283618943e-06
6.829812984634963e-06
-7.709866908498397e-06
1.145002625310195e-05
-8.270464309361758e-06
1.3951407822191276e-05
-1.1741698634199166e-05
1.7933987494234027e-05
-1.0058071134250736e-05
1.9571759494498518e-05
-6.395711937192268e-06
2.1543941284940245e-05
-2.5502919042463704e-06
1.2810010955758711e-05
-5.949736131923575e-07
1.539531191285469e-05
-0.0
-0.0
0.0
0.0
0.0
0.0
0.0
0.0
0.0
0.0
0.0
0.0
0.0
0.0
0.0
0.0
0.0
0.0
0.0
0.0
0.0
0.0
0.0
0.0
0.0
0.0
0.0
0.0
0.0
0.0
0.0
0.0
0.0
0.0
0.0
0.0
0.0
0.0
0.0
0.0
0.0
0.0
0.0
0.0
0.0
0.0
0.0
0.0
0.0
1.2474347337451625e-05
8.266061199670032e-06
1.2823060664347163e-05
1.5288912106521466e-05
2.323326813311012e-06
2.4479544296055307e-05
-7.056306343973185e-07
2.698398240718869e-05
-3.7036232201394415e-06
2.3033483012420623e-05
-7.733288552519422e-06
1.7442389115301676e-05
-7.269518335999243e-06
1.0170374221575051e-05
-9.759645590809858e-06
6.5039066878091645e-06
-1.3713101453408505e-05
6.151702160878817e-06
-1.0852841332393041e-05
8.292807904614319e-06
-7.666244940557768e-06
5.556545735708854e-06
-8.076753069811426e-06
5.815658997452235e-06
7.252083474519766e-07
1.0808605762766973e-05
3.7977317022854832e-06
7.861867921840586e-06
4.260713040699308e-06
1.4418452337580981e-05
7.2693680899854525e-06
1.5753788749090946e-05
7.755873443386902e-06
2.083336399774219e-05
5.876714479360172e-06
2.583328122126484e-05
3.441538098934424e-06
3.4955735452025757e-05
1.592980410377067e-06
3.828564995609187e-05
-1.1595144587219393e-06
4.141437514382821e-05
6.565478801484646e-07
4.299875795671101e-05
1.8821266442452519e-06
4.063456231894282e-05
1.7414200974263296e-06
3.4301413333887024e-05
5.302721869500803e-06
2.5881245427032747e-05
1.0248283066572936e-05
1.5054797657538907e-05
1.040372275288647e-05
1.0681167519766577e-05
2.2733638269435593e-05
0.0
0.0
0.0
0.0
0.0
0.0
0.0
0.0
0.0
0.0
0.0
0.0
0.0
0.0
0.0
0.0
0.0
0.0
0.0
0.0
0.0
0.0
0.0
0.0
0.0
0.0
0.0
0.0
0.0
0.0
0.0
0.0
0.0
0.0
0.0
0.0
0.0
0.0
0.0
0.0
0.0
0.0
0.0
0.0
0.0
0.0
4.715665240973856e-06
-6.673297282258353e-06
8.402372666467584e-06
-1.2624551653155468e-05
2.7926775871588463e-06
-1.5651895437419216e-05
-4.013577498788426e-06
-1.5036595871918293e-05
2.555818424088562e-06
-1.2263368707087391e-05
6.408457027146791e-06
-1.50414669920278e-05
4.449474081998908e-06
-9.850578785835167e-06
2.3067298894622337e-06
-8.44308161742079e-07
7.215801693659457e-06
4.348631236917435e-06
9.8811349079157e-06
8.140789825653637e-06
1.5986783486631796e-05
9.982059737163197e-06
1.7520865033701297e-05
6.221661921424946e-06
2.2406320153222277e-05
8.458168969134241e-06
2.5827596689828656e-05
2.5032588695843545e-06
2.2819495490564332e-05
-1.8016687727118942e-06
2.3222359696894973e-05
-4.31290209701825e-06
1.92622339761894e-05
-6.431949713088046e-06
8.544026555546905e-06
-1.258843922701024e-05
7.315505366851566e-06
-7.076026413479133e-06
4.331418873326018e-06
-2.5249358662208965e-06
-2.8128554134085076e-06
4.798722570238006e-06
-8.035587045311771e-06
1.5085004447997282e-05
-1.3397271223256906e-05
1.9792146924405093e-05
-9.941879909849656e-06
2.1901763907090287e-05
-7.3058168848055125e-06
2.1371104245843368e-05
-5.436315308825436e-06
1.0078173446073094e-05
-8.899039223268113e-06
8.391039598439905e-06
-1.0032416884536921e-05
6.897751370159872e-06
-1.2650520685330946e-05
-0.0
0.0
0.0
0.0
0.0
0.0
0.0
0.0
0.0
0.0
0.0
0.0
0.0
0.0
0.0
0.0
0.0
0.0
0.0
0.0
0.0
0.0
0.0
0.0
0.0
0.0
0.0
0.0
0.0
0.0
0.0
0.0
0.0
0.0
0.0
0.0
0.0
0.0
0.0
0.0
0.0
0.0
0.0
2.4849652995687293e-05
8.811067478449461e-06
1.646816672164949e-05
1.2303329181517077e-05
1.97877243979452e-05
1.198095753830076e-05
2.694069953932686e-05
1.1598051183081292e-05
3.1934052407536525e-05
9.496386153711825e-07
3.3418127724799945e-05
-4.6225180973700536e-06
2.749845012358074e-05
-6.7428889847286916e-06
2.141864900158965e-05
-9.46222530132641e-06
1.623902188589309e-05
-1.7045508404393075e-05
1.091075228790235e-05
-1.2187088479245559e-05
1.3875617215693802e-05
-7.4692333097346105e-06
1.4611318250200806e-05
-6.341479065640887e-06
1.1212221635401738e-05
1.6238083322403106e-06
8.294321113509905e-06
4.8919100091038826e-06
1.2334709824736288e-05
1.1139700189489876e-05
1.1643117287684439e-05
8.507394542319266e-06
1.2113599034304178e-05
9.186868315377935e-06
2.0441948196177773e-05
1.1150598744250735e-05
1.843803534249751e-05
1.2118684671517408e-05
2.628875504395426e-05
1.1937894167564062e-05
2.8804287597893065e-05
8.071310392057305e-06
4.235904565914117e-05
8.254497905853716e-06
4.988847276732871e-05
3.932881872185089e-06
5.245621347766426e-05
-9.880609130763807e-07
4.847474840262831e-05
-7.891334385780816e-08
4.2160884319751625e-05
3.124757463261273e-06
2.8257755979521815e-05
4.011682823904011e-06
1.1748407144671826e-05
1.2204610083757126e-05
1.175062235304081e-05
2.1562536923281878e-05
8.967785455012526e-06
1.6982376615244376e-05
-0.0
-0.0
0.0
0.0
0.0
0.0
0.0
0.0
0.0
0.0
0.0
0.0
0.0
0.0
0.0
0.0
0.0
0.0
0.0
0.0
0.0
0.0
0.0
0.0
0.0
0.0
0.0
0.0
0.0
0.0
0.0
0.0
0.0
0.0
0.0
0.0
0.0
0.0
0.0
0.0
0.0
-1.2839816528569322e-05
1.3483136832775548e-06
-1.1382990696696703e-05
8.953687478178234e-06
-7.240569506384621e-06
7.006828924711598e-06
-8.657261996257263e-06
-4.5175185033497844e-07
-1.1879116282247334e-05
-6.597034880371457e-06
-1.4011476284689772e-05
-3.936650458522524e-06
-1.3771123131272144e-05
1.9727200467457124e-06
-8.856290280518867e-06
6.887440859415449e-06
-3.4811516006978162e-06
9.707844467600935e-07
6.40868483681259e-06
-4.735630617736215e-07
1.4341735328685685e-05
3.5420977460115027e-06
1.1713168832553596e-05
4.275531714121361e-06
1.7312538919827506e-05
9.504566464051595e-06
1.396275372302039e-05
1.833850641256869e-05
6.525960456821532e-06
1.4314880035857177e-05
-2.7336183173609776e-07
1.7727620376074637e-05
-2.0582311329901933e-06
2.2299378082632945e-05
-6.809157374243198e-06
1.7484397321176167e-05
-1.4503827078584534e-05
1.7114794378977368e-05
-1.1006001687308487e-05
1.5345583420803052e-05
-1.1235797953805169e-05
4.6185988491157365e-06
-1.453344843547379e-05
-5.363903053428997e-06
-4.758625174166908e-06
-6.946180079796625e-06
5.496602254224633e-06
-1.025439092753301e-05
9.102842849328339e-06
-8.991201593505136e-06
1.471290494601028e-05
-6.453231456532334e-07
1.8691632287472906e-05
-8.209961958541273e-06
8.293280941659197e-06
-8.31524458480646e-06
8.03762474014565e-06
-9.337134904847048e-06
9.248545561729068e-06
-1.1116844018280665e-05
5.9529806375879344e-06
-5.899997499754907e-06
1.4032399913797718e-05
-0.0
0.0
0.0
0.0
0.0
0.0
0.0
0.0
0.0
0.0
0.0
0.0
0.0
0.0
0.0
0.0
0.0
0.0
0.0
0.0
0.0
0.0
0.0
0.0
0.0
0.0
0.0
0.0
0.0
0.0
0.0
0.0
0.0
0.0
0.0
0.0
0.0
0.0
2.1033382347535296e-05
7.4114819577537464e-06
1.905032058459917e-05
1.2479034826151183e-05
2.157858175496212e-05
1.3926703432076021e-05
2.30495523836878e-05
1.0848010085230718e-05
2.9962370762219055e-05
2.109775744069412e-07
3.1677301502154814e-05
-3.5556945553542643e-06
2.94513823541007e-05
-6.610597269460865e-06
2.92485116411911e-05
-7.602229884458703e-06
2.635889525401942e-05
-6.005502071209546e-06
2.0870795425615787e-05
-5.355340163978126e-06
1.7521009030903572e-05
-9.052349947762221e-06
1.3177951571630953e-05
1.4841797668563677e-06
1.6883751503108855e-05
6.849503531097425e-06
1.293460330071337e-05
4.246029195269185e-06
8.701515430585123e-06
1.1214653473859698e-05
6.957509146557874e-06
1.4112226273322277e-05
1.3399109387379007e-05
9.133313322857021e-06
1.8202851235609727e-05
9.758091653015969e-06
1.918289421694037e-05
1.6674097709662864e-05
2.32012397848478e-05
1.5559251611400634e-05
2.799167314708634e-05
1.891333838863262e-05
3.079773518364081e-05
2.1456139072461534e-05
4.284185704622477e-05
1.1432690372293178e-05
4.7084677634210644e-05
5.137790215270786e-06
4.938629225309141e-05
-2.6073282120648428e-06
4.566961152349747e-05
2.042587762464252e-06
4.0420624320921386e-05
8.639553631080184e-06
2.5228109241042952e-05
9.882162533048438e-06
1.2365408584972052e-05
1.265513703367749e-05
6.293592649985192e-06
1.743924959187718e-05
4.801881270554626e-06
1.4734903256767347e-05
1.2286338087637016e-06
6.101617046934564e-07
-6.5415541408668275e-06
-0.0
0.0
0.0
0.0
0.0
0.0
0.0
0.0
0.0
0.0
0.0
0.0
0.0
0.0
0.0
0.0
0.0
0.0
0.0
0.0
0.0
0.0
0.0
0.0
0.0
0.0
0.0
0.0
0.0
0.0
0.0
0.0
0.0
0.0
0.0
0.0
-8.288079199416388e-06
4.486241221680353e-06
-1.2516499915174222e-05
6.0571949140673385e-06
-1.2936798255413689e-05
1.7911804259392782e-06
-7.25769121892736e-06
4.036012622191123e-06
-7.358469981420668e-06
-4.413336247010166e-06
-8.618964781207216e-06
-5.044268513684359e-06
-5.216638741125094e-06
-1.95460811379305e-06
-5.089031142682146e-06
-2.3776250119418114e-06
1.5669477105548387e-07
-2.22842539977229e-06
7.828970382976432e-06
1.522536677314242e-06
8.430805442958537e-06
-2.621969484967544e-07
1.3776932396580603e-05
-1.3858193394420808e-06
1.7613755944948293e-05
7.725710842088558e-07
1.5438333537972025e-05
4.965098303523908e-06
1.1485341415104466e-05
1.0315092615546204e-05
4.689699128222617e-06
1.223360873787327e-05
2.0284533213520444e-06
1.4815124354457654e-05
-1.7510106435142385e-07
1.4142954430427496e-05
-7.1443019814797415e-06
1.423687683593576e-05
-1.1902759628238081e-05
1.6332174938664827e-05
-1.2408732579888821e-05
1.6650008542372723e-05
-1.4570745462959912e-05
8.852524725214025e-06
-1.183139765515952e-05
-1.9095311690595553e-06
-8.826575887743115e-06
-7.96098364082776e-06
-2.7808623573820267e-06
-1.1652638259617252e-05
4.445937761406367e-08
-6.4727136234938565e-06
1.0506792033575968e-05
-3.6299590975475053e-06
8.760380177207834e-06
-2.138556361871784e-07
7.720000020831517e-06
-3.91615879242946e-06
8.169384571831792e-07
-6.510655357271958e-06
5.312114745204203e-07
-8.131638489560846e-06
7.988340880634146e-07
-3.984185341750454e-06
5.74829151445609e-06
-3.186522704116731e-06
1.1352775030984193e-06
-0.0
0.0
0.0
0.0
0.0
0.0
0.0
0.0
0.0
0.0
0.0
0.0
0.0
0.0
0.0
0.0
0.0
0.0
0.0
0.0
0.0
0.0
0.0
0.0
0.0
0.0
0.0
0.0
0.0
0.0
0.0
0.0
0.0
0.0
1.5937219602373504e-05
1.328560108249781e-05
1.1051623275983792e-05
1.1494195562240262e-05
1.133899714776819e-05
1.3480498742204282e-05
1.8500640540206145e-05
1.0822840826465912e-05
2.3321439147663576e-05
5.023561280509609e-06
2.7031686607479564e-05
-6.104472143472645e-06
2.5794513774095215e-05
-1.1522540371460707e-05
2.6582139423609557e-05
-9.748186387472241e-06
2.9317984263950082e-05
-6.495126971503863e-06
3.092273234907057e-05
1.5802430030957028e-06
2.4654578752703986e-05
-1.677384960371259e-06
1.906230295779661e-05
1.005216045860532e-06
1.1049621215044122e-05
8.956444781951425e-06
6.376176360626754e-06
1.2209224699328915e-05
9.574517644687199e-06
1.3003260096798204e-05
7.022749040981124e-06
1.5692467511665694e-05
8.67434249992831e-06
1.4634696242333309e-05
1.7203866941468498e-05
9.255432452274801e-06
1.4809994698360153e-05
1.3797553494698849e-05
1.798307388833503e-05
1.7177126538605662e-05
1.9984625350374796e-05
1.545211523310691e-05
2.2086142996369216e-05
2.0205821058043613e-05
2.5262217747220614e-05
2.2373300603999206e-05
3.466445110338307e-05
1.928308575899642e-05
4.309389743795228e-05
4.8568270790587454e-06
4.156985257408321e-05
-3.882109890183585e-06
4.0591521948168956e-05
-1.4179306621509737e-06
3.412819411371478e-05
7.164471461099864e-06
2.4097759520094855e-05
1.0971475186251447e-05
9.611724343445431e-06
7.813818689825095e-06
-2.376450692491577e-06
9.93342020139189e-06
1.4068208577750048e-06
6.687109064563064e-06
3.8878504311506444e-07
2.1723676636298963e-06
-6.292838489824801e-07
3.0985075030987906e-06
3.823641332082878e-06
-0.0
0.0
0.0
0.0
0.0
0.0
0.0
0.0
0.0
0.0
0.0
0.0
0.0
0.0
0.0
0.0
0.0
0.0
0.0
0.0
0.0
0.0
0.0
0.0
0.0
0.0
0.0
0.0
0.0
0.0
0.0
0.0
3.616343146329806e-07
3.0699064250489834e-06
-4.019895060188945e-06
3.096329411634289e-06
-5.351678661031877e-06
2.5510907494308978e-06
-5.647185655271994e-06
4.688917063229515e-07
-4.2472992708156776e-06
6.272082508609502e-07
-2.3682046611035387e-06
-1.8215402026558588e-07
-3.7848183100831967e-06
-5.549742537422256e-06
1.130148357748774e-06
-8.690035132228725e-06
2.360702053499377e-06
-5.816146953102914e-06
5.227968089139348e-06
-4.789143583864948e-06
9.734961091888344e-06
-5.601229540069927e-06
1.3374677196398375e-05
-2.7846348074907473e-06
1.0789222898314824e-05
-6.230118540314344e-06
1.515304775057494e-05
-6.1551060928044156e-06
1.2865032404135617e-05
-7.399225840051853e-07
6.511000001063098e-06
9.132722358104051e-06
2.798427437698223e-06
9.5928473530701e-06
5.851193414712778e-06
7.662008504706522e-06
1.1029638714799903e-06
1.0188252967364473e-05
-1.8300351306741667e-06
8.441273259983198e-06
-9.683100528536212e-06
1.0441875982449735e-05
-1.1471561426344294e-05
1.2653861830821e-05
-1.0870147782500756e-05
7.781336033471758e-06
-1.4125850651894633e-05
-5.4338969046896716e-06
-1.4364155328559273e-05
-1.1538574968900953e-05
-8.945668868702512e-06
-8.950788829347446e-06
-8.99408296525035e-06
-1.2416327418629348e-05
-7.061711937009478e-06
-8.023579642712129e-06
1.971109764550157e-06
-6.154923785635961e-06
3.2982128844416737e-06
-3.7165190241549053e-06
-4.7110798985151e-06
-3.416240789023778e-06
-6.510521318815158e-06
-9.568887580629388e-06
-4.257916104468427e-06
-1.1770809059898838e-05
-2.42989585176114e-06
-6.080215381399184e-06
-3.83226862220729e-06
-8.455761609696336e-07
-7.774886740792147e-06
-0.0
0.0
0.0
0.0
0.0
0.0
0.0
0.0
0.0
0.0
0.0
0.0
0.0
0.0
0.0
0.0
0.0
0.0
0.0
0.0
0.0
0.0
0.0
0.0
0.0
0.0
0.0
0.0
0.0
0.0
1.2228192952207006e-05
9.77695123420661e-06
8.949011179391141e-06
1.7436376767924426e-05
3.9379462806712865e-06
1.9094347686423154e-05
6.151707381192589e-06
1.3092470431671131e-05
1.8550619961829673e-05
1.3168757807375045e-05
2.3960612041990176e-05
1.3879113760337418e-06
2.1559262181508588e-05
-6.219122013735076e-06
2.1352916363842065e-05
-1.2236599756899471e-05
2.1570213923302573e-05
-9.624684095908347e-06
2.8315628581942304e-05
-7.871417046283805e-06
2.195813805953074e-05
-1.400717295134553e-06
1.6523918721616752e-05
5.161487075722225e-06
1.2610521099545434e-05
5.3826792580159345e-06
7.83219899226695e-06
1.550259028465185e-05
7.942219172724951e-06
2.2513213176448735e-05
9.841787260151212e-06
1.7399847957205223e-05
9.305964926507828e-06
1.3145008357982877e-05
2.788342787986472e-06
1.3085133413807663e-05
4.088692529384114e-06
7.513390916604513e-06
-1.7983263167326847e-06
9.489625716639669e-06
-1.5789249610096338e-06
1.8401247278896312e-05
8.389110259804497e-06
1.4425892753808698e-05
1.2413225842272016e-05
1.5023582470111585e-05
2.3131800882821317e-05
2.40741592914762e-05
2.9893612641587075e-05
2.0298428145936772e-05
3.946908559173402e-05
6.663368459276922e-06
4.001770149066606e-05
-1.7597961341831465e-06
2.9106140543950673e-05
-6.6295319886406265e-06
1.9467232309811292e-05
-5.264423029749058e-06
1.4883334748703184e-05
-5.256504029085218e-07
5.715120803235669e-06
-3.1437820427210183e-06
3.069662041863732e-07
-5.309530378466401e-07
-3.616219651137698e-06
5.537130252715011e-06
-6.68224478427403e-07
6.011937106622563e-06
-3.7758291717391137e-06
4.45613393069752e-06
2.9712625081964725e-06
2.42747581198975e-06
6.330551478959836e-06
-0.0
0.0
0.0
0.0
0.0
0.0
0.0
0.0
0.0
0.0
0.0
0.0
0.0
0.0
0.0
0.0
0.0
0.0
0.0
0.0
0.0
0.0
0.0
0.0
0.0
0.0
0.0
0.0
6.668152005283671e-06
4.159722698431836e-06
3.738484367390938e-06
5.219776371768544e-06
2.9358808952655276e-07
7.5765948167422646e-06
2.694726000094092e-06
1.8741913520211682e-06
6.493703790365767e-06
5.06158090856674e-07
1.1814184087925648e-06
3.1553830381375383e-07
-2.746148980599246e-06
-3.050150915730053e-06
7.70706851203445e-07
-1.9578060585652817e-06
4.659638089308853e-06
-6.140454141284901e-06
9.556130278347361e-06
-4.549689968501148e-06
1.2650051475485186e-05
-6.675907261794456e-06
8.976445789637448e-06
-7.421886612179016e-06
1.3291486617963237e-05
-1.3499486234264756e-05
8.495513268046472e-06
-1.9165652807154308e-05
1.0237257647867351e-05
-1.354955960557082e-05
8.23661186157771e-06
-6.8996348943609704e-06
5.725780781153662e-06
4.2206852072560347e-07
1.9723545473765747e-06
3.996070643713874e-06
4.1062563488575866e-06
2.485940073194793e-06
3.158501016081863e-06
5.807027759217921e-06
3.1899049564287045e-06
7.390865213000733e-07
-4.883671817294049e-06
2.749201133517816e-06
-5.377148751414468e-06
6.309952747298926e-06
-5.1107582147099225e-06
1.405784317627179e-06
-1.0949846970641584e-05
-7.656639890496319e-06
-1.0742279913865039e-05
-9.614973458213008e-06
-8.890370360474039e-06
-5.153369408012705e-06
-1.2623878504061029e-05
-1.0929933208015112e-05
-1.1285447247534858e-05
-1.1932278654855104e-05
-8.39956073401758e-06
-6.353248900863023e-06
-8.184395982832722e-06
-8.279388441872479e-07
-1.0593830723494465e-05
-4.566604324660777e-06
-8.664825131336579e-06
-1.1600263131153333e-05
-5.920339503718001e-06
-1.2826849916996616e-05
-1.0251183343890987e-05
-6.964360012510226e-06
-8.833706263807295e-06
-1.7728150387001309e-06
-8.789572253252522e-06
-1.1655587662179708e-06
-5.933195378472366e-06
-0.0
0.0
0.0
0.0
0.0
0.0
0.0
0.0
0.0
0.0
0.0
0.0
0.0
0.0
0.0
0.0
0.0
0.0
0.0
0.0
0.0
0.0
0.0
0.0
0.0
0.0
8.398391440153037e-06
5.471557527351678e-06
5.986254131603367e-06
1.5531938979216508e-05
4.517142402442308e-06
1.4569361650051615e-05
8.94401010952836e-07
1.704351602605975e-05
4.951525594543689e-06
1.5542254959455435e-05
7.48440622250952e-06
8.50358955980816e-06
1.0604640445982131e-05
-8.522802665882913e-07
1.322596626175618e-05
-1.0739677527246585e-05
1.842311460578942e-05
-1.4639370047450585e-05
1.896099027859042e-05
-1.5303451026772847e-05
1.761811454451785e-05
-1.246320149446442e-05
5.1061396321958144e-06
-5.869715969550419e-06
2.8086162039337824e-06
4.474355023716361e-06
8.477642349606726e-06
1.1956645163291106e-05
4.349810968345073e-06
1.8813224196812812e-05
1.1046817995443302e-06
2.32302480297661e-05
3.880823904549012e-06
1.840707669421742e-05
2.0923585781435946e-07
1.2625950908154425e-05
-4.239406878362752e-06
9.97443436696363e-06
-7.3174323827343805e-06
1.933267226877931e-06
-4.628723592898975e-06
5.287126060209944e-06
-9.42162880684047e-06
1.2735491597993715e-05
-4.221953745860244e-06
1.1874993830577704e-05
4.511765177046364e-06
1.4443418407912967e-05
1.0361090088487063e-05
1.916033149811694e-05
1.0801405376281326e-05
1.8748851732636796e-05
2.4196513615712664e-05
1.131302611317509e-05
2.8285762869815513e-05
4.406660879252554e-06
2.6104165721859615e-05
-4.338777937457148e-06
1.7235858910086484e-05
-1.1217954463597016e-05
1.1894630384912471e-05
-7.203471251139277e-06
2.9100027596822105e-06
-1.1152501309157317e-05
-6.269140906452437e-06
-2.233276012774088e-06
-8.828264826051988e-06
-2.358425125836989e-07
-1.0614047022434488e-05
3.4029995803939614e-06
-3.0269646616574102e-06
5.3813459864404955e-06
5.2426866924000105e-08
-3.13194838279289e-06
4.439728688901059e-06
-5.129364008808629e-07
-3.4102617324885697e-06
-0.0
0.0
0.0
0.0
0.0
0.0
0.0
0.0
0.0
0.0
0.0
0.0
0.0
0.0
0.0
0.0
0.0
0.0
0.0
0.0
0.0
0.0
0.0
0.0
1.1828701218887342e-05
2.469899132970906e-06
4.121845291338089e-06
4.448059725787531e-06
6.058277798581366e-06
6.475509666423641e-06
8.229568212897963e-06
5.274189679957912e-06
9.604238055564251e-06
3.932159618078389e-06
8.617234704851617e-06
2.0676573337656486e-06
4.359654331543351e-06
1.7565730082441475e-06
7.536012468613892e-06
-1.6809365115004098e-06
1.1700945634935655e-05
-2.2700469242945174e-06
1.5938573863732666e-05
-2.2710455814399138e-06
1.2678304165648512e-05
-1.451196537577451e-06
1.2715390603775376e-05
-5.465171395229918e-06
1.0139817667208992e-05
-1.0724421026060147e-05
7.639954175603976e-06
-1.2940459374231887e-05
6.395621321385133e-06
-1.630097803081574e-05
4.173138882646745e-06
-1.1212536226435934e-05
1.9202299707945723e-06
-9.123098823860703e-06
2.589733719181084e-07
-3.1398642251108558e-06
-2.2698009131601368e-06
-1.1401325381844312e-06
-3.88940826009021e-08
9.871098388870203e-07
4.220701460043321e-06
4.021290402112209e-06
8.458286311984235e-06
1.5302873006307792e-06
6.188109265424971e-06
-4.630025415227165e-06
5.188032984238664e-06
-6.45778305333468e-07
9.206342849459042e-07
-2.81415250184448e-06
6.815460274916493e-07
-1.0891886965148254e-05
-2.899987474880314e-06
-1.1187681466671174e-05
-7.462180505808306e-06
-7.858180280188779e-06
-7.4443596884943535e-06
-8.046635812512956e-06
-1.1527557604833194e-05
-3.4383863367725537e-06
-1.5035880331065192e-05
1.453128820101972e-06
-1.1443625421764627e-05
-3.3211699527743193e-06
-1.3450773801464729e-05
-8.27862434377891e-06
-1.5202372581124825e-05
-1.378300418788942e-05
-1.2555063421888693e-05
-1.603103871469518e-05
-1.534384828954618e-05
-1.1687317003922485e-05
-1.169715158606126e-05
-9.582243021681291e-06
-1.1878184667761276e-05
-1.091832123428107e-05
-9.199412690822416e-06
-2.277671501738326e-06
-5.481511914629493e-06
-0.0
0.0
0.0
0.0
0.0
0.0
0.0
0.0
0.0
0.0
0.0
0.0
0.0
0.0
0.0
0.0
0.0
0.0
0.0
0.0
0.0
0.0
9.262374207942326e-06
3.551252093554689e-06
4.741978737212304e-06
9.748325027021289e-06
-2.6011676920474803e-06
1.3678482778250162e-05
-2.737734894395594e-06
1.5688793788451138e-05
-3.211724929365269e-06
1.252964128956695e-05
-1.3924947840721521e-06
1.9416603381495506e-05
-1.5790490251522172e-06
8.094821909829622e-06
2.099654931980462e-06
-3.808658258833577e-06
5.8360125763412615e-06
-9.140748262048433e-06
1.541141832463788e-05
-1.58097480283432e-05
1.7516571230746566e-05
-1.3849193730734167e-05
1.643673819072005e-05
-1.4120897202826112e-05
-4.123520316661463e-07
-3.936353123157518e-06
-2.551331619244872e-06
6.637850893846798e-06
2.4101774022271946e-07
1.4201294603993481e-05
-3.3937519309507012e-06
1.8651119852310413e-05
-6.22627157401115e-06
1.3481200727969421e-05
-1.0409667855201761e-05
1.1575667406396542e-05
-1.5021198318434658e-05
5.26544480055433e-06
-1.3804784268026058e-05
1.618277152154932e-06
-9.906543695763242e-06
-4.430108402660398e-06
-5.259345669426026e-06
-5.338647428518018e-06
-1.5801139240366273e-05
8.973952361915924e-06
-1.6550492389036888e-05
1.653420232212922e-05
-1.4530028317143277e-05
1.3212190306585811e-05
-1.073707160325786e-05
1.634374749456936e-05
-6.402017702532341e-06
1.4933705241684393e-05
3.1450816501405875e-06
1.0445295434629727e-05
1.8757142908529103e-05
5.667687378456426e-06
1.8264521940396132e-05
-3.651675987031943e-06
1.0860628372430902e-05
-1.3749519945745123e-05