# vtk DataFile Version 2.0
Acoustic field
ASCII
DATASET STRUCTURED_POINTS
DIMENSIONS 102 102 1
ORIGIN -0.01 -0.01 0
SPACING 0.0002 0.0002 1
POINT_DATA 10404
SCALARS pressure float 1
LOOKUP_TABLE default
0.0
0.0
0.0
0.0
0.0
0.0
0.0
0.0
0.0
0.0
0.0
0.0
0.0
0.0
0.0
0.0
0.0
0.0
0.0
0.0
0.0
0.0
0.0
0.0
0.0
0.0
0.0
0.0
0.0
0.0
0.0
0.0
0.0
0.0
0.0
0.0
0.0
0.0
0.0
0.0
0.0
0.0
-0.0
-0.0
-0.0
-0.0
-0.0
-0.0
-0.0
-0.0
-3.71625136973998e-06
-0.0
-0.0
0.0
-0.0
0.0
-0.0
0.0
-0.0
0.0
0.0
0.0
0.0
0.0
0.0
0.0
0.0
0.0
0.0
0.0
0.0
0.0
0.0
0.0
0.0
0.0
0.0
0.0
0.0
0.0
0.0
0.0
0.0
0.0
0.0
0.0
0.0
0.0
0.0
0.0
0.0
0.0
0.0
0.0
0.0
0.0
0.0
0.0
0.0
0.0
0.0
0.0
0.0
0.0
0.0
0.0
0.0
0.0
0.0
0.0
0.0
0.0
0.0
0.0
0.0
0.0
0.0
0.0
0.0
0.0
0.0
0.0
0.0
0.0
0.0
0.0
0.0
0.0
0.0
0.0
0.0
0.0
0.0
0.0
0.0
0.0
0.0
0.0
0.0
-0.0
-0.0
0.0
-0.0
-1.2827386922818335e-07
-7.734953308513004e-06
2.0090212495494e-06
-9.598753581162755e-07
2.2146290900549676e-06
1.0633794198719392e-06
-1.2620777372657428e-06
-6.002421681014342e-06
1.9746278537573926e-06
-7.720310019967277e-06
-9.812386783563374e-07
-1.0720518422375135e-05
-5.3196898298458026e-06
-1.1631496658066283e-05
-2.593464435032198e-06
-1.0999934105600029e-05
-5.931449335426227e-06
-6.394277184053102e-06
-8.873376219105121e-06
0.0
0.0
0.0
0.0
0.0
0.0
0.0
0.0
0.0
0.0
0.0
0.0
0.0
0.0
0.0
0.0
0.0
0.0
0.0
0.0
0.0
0.0
0.0
0.0
0.0
0.0
0.0
0.0
0.0
0.0
0.0
0.0
0.0
0.0
0.0
0.0
0.0
0.0
0.0
0.0
0.0
0.0
0.0
0.0
0.0
0.0
0.0
0.0
0.0
0.0
0.0
0.0
0.0
0.0
0.0
0.0
0.0
0.0
0.0
0.0
0.0
0.0
0.0
0.0
0.0
0.0
0.0
0.0
0.0
0.0
0.0
0.0
0.0
0.0
0.0
0.0
-0.0
0.0
1.716286663672927e-06
-4.6873535278583365e-06
-5.38755666959089e-06
-1.2583301179329843e-05
-5.9177598807584406e-06
-9.116953172742907e-06
-4.85161639291163e-06
-7.260171374566188e-06
-2.7775180066264185e-06
-9.357846579676211e-06
-7.342507964571426e-06
-4.404919111181486e-06
-7.193660301239529e-06
-6.008637628056254e-06
-2.686699424114809e-06
-7.851541480449695e-06
1.8037674290975455e-06
-6.6951692795821724e-06
3.7559617407875626e-06
-1.023142141671307e-05
8.807928081696723e-06
-1.3835775977309822e-05
4.393861226353624e-06
-2.0969869351782404e-05
1.1425946845592247e-05
-3.262167624815724e-05
9.786539175507568e-06
-3.8800461837276316e-05
-0.0
0.0
-0.0
0.0
0.0
0.0
0.0
0.0
0.0
0.0
0.0
0.0
0.0
0.0
0.0
0.0
0.0
0.0
0.0
0.0
0.0
0.0
0.0
0.0
0.0
0.0
0.0
0.0
0.0
0.0
0.0
0.0
0.0
0.0
0.0
0.0
0.0
0.0
0.0
0.0
0.0
0.0
0.0
0.0
0.0
0.0
0.0
0.0
0.0
0.0
0.0
0.0
0.0
0.0
0.0
0.0
0.0
0.0
0.0
0.0
0.0
0.0
0.0
0.0
0.0
0.0
0.0
0.0
0.0
-0.0
0.0
-1.1319244418728281e-05
2.3915213742099915e-06
-1.0383361526766539e-05
1.7769082505226091e-06
-4.5307765674887e-06
7.891375386377272e-07
-1.773060308179554e-06
-6.04020860187102e-06
-8.31985672347437e-07
-6.318353076937828e-06
-1.2642679413956613e-06
-3.43612766035014e-06
-6.700042609366328e-07
-2.572470073158e-06
1.951370264787137e-06
-8.383865785005018e-06
-2.7728246268993378e-06
-6.649040938422946e-06
-4.339926735511774e-06
-9.154545148019135e-06
-1.8688062688296517e-06
-1.476531978618619e-05
-6.110240057636731e-06
-1.7613519663361603e-05
-6.075831433688016e-06
-1.2743124369213666e-05
-2.6915140521318184e-06
-1.6524945183005068e-05
1.264996300586669e-06
-1.2594230162689705e-05
2.366636171355609e-06
-1.730668843542271e-05
8.034864520399501e-07
-1.275570331620362e-05
1.0187470979621538e-07
0.0
0.0
0.0
0.0
0.0
0.0
0.0
0.0
0.0
0.0
0.0
0.0
0.0
0.0
0.0
0.0
0.0
0.0
0.0
0.0
0.0
0.0
0.0
0.0
0.0
0.0
0.0
0.0
0.0
0.0
0.0
0.0
0.0
0.0
0.0
0.0
0.0
0.0
0.0
0.0
0.0
0.0
0.0
0.0
0.0
0.0
0.0
0.0
0.0
0.0
0.0
0.0
0.0
0.0
0.0
0.0
0.0
0.0
0.0
0.0
0.0
0.0
0.0
0.0
-0.0
4.176941275242586e-06
-2.615806545990489e-06
9.457064312948308e-07
2.6473854384782934e-06
-1.1224713373884882e-06
6.089439899447911e-06
-6.549432044663052e-06
-2.1782371580093433e-06
-1.3756192029183277e-05
-2.1326391208753566e-06
-1.3291448219906634e-05
-1.4866429975665216e-06
-1.4717824975358256e-05
-3.0630591666038268e-06
-1.5806184048350854e-05
-5.739596661976593e-06
-1.4377671307834636e-05
-7.109706186525591e-06
-1.1953274258019766e-05
-1.9711475405624127e-06
-1.4264101141255172e-05
4.7361187794628085e-07
-1.3164829671286215e-05
2.2297654745990104e-06
-1.3581080758306859e-05
7.951704407019307e-06
-2.3962198397759022e-05
6.241544054007534e-06
-2.7918908275751637e-05
1.657986521255707e-05
-3.1442455107305894e-05
1.4977311616722888e-05
-3.568194357247401e-05
8.836090456408097e-06
-2.218805268102831e-05
1.089505172072495e-05
-2.041117011426752e-05
1.528725903268158e-05
-2.6056638556035274e-05
-0.0
-0.0
0.0
0.0
0.0
0.0
0.0
0.0
0.0
0.0
0.0
0.0
0.0
0.0
0.0
0.0
0.0
0.0
0.0
0.0
0.0
0.0
0.0
0.0
0.0
0.0
0.0
0.0
0.0
0.0
0.0
0.0
0.0
0.0
0.0
0.0
0.0
0.0
0.0
0.0
0.0
0.0
0.0
0.0
0.0
0.0
0.0
0.0
0.0
0.0
0.0
0.0
0.0
0.0
0.0
0.0
0.0
0.0
0.0
-0.0
-0.0
-1.181789914623398e-05
5.104980925787068e-06
-1.0069418332433659e-05
8.115630751456688e-06
-1.1319441272479692e-05
8.658735054913915e-06
-1.2322817848106956e-05
6.761833980549917e-06
-5.643721344717846e-06
3.783861029403681e-06
-2.176116187530863e-06
-5.10071578785808e-06
-3.447455854910716e-07
-7.169963635893063e-06
2.9608225882006387e-06
-2.5898637635464255e-06
1.0369500624943988e-06
-3.115759546431098e-06
1.3923372327005678e-06
-4.799114197789474e-06
9.403088960505443e-07
-2.8084081931929745e-06
-3.7301610207305245e-07
-3.987759791772952e-06
-5.496931122936238e-06
-8.264814104670735e-06
-3.563241157976849e-06
-1.2496874110801165e-05
-4.58417281273599e-06
-1.806773733863433e-05
-7.124012627334e-06
-2.341173572438699e-05
-8.337871451493996e-07
-2.571673997086298e-05
1.6074192397617605e-06
-2.707581527273589e-05
1.818394844879741e-06
-2.0900698669118792e-05
9.386263452409937e-06
-1.803425418448807e-05
9.263709791559383e-06
-1.5110127318660258e-05
1.1779564719565666e-05
0.0
0.0
0.0
0.0
0.0
0.0
0.0
0.0
0.0
0.0
0.0
0.0
0.0
0.0
0.0
0.0
0.0
0.0
0.0
0.0
0.0
0.0
0.0
0.0
0.0
0.0
0.0
0.0
0.0
0.0
0.0
0.0
0.0
0.0
0.0
0.0
0.0
0.0
0.0
0.0
0.0
0.0
0.0
0.0
0.0
0.0
0.0
0.0
0.0
0.0
0.0
0.0
0.0
0.0
0.0
0.0
-0.0
1.250232871196963e-05
3.946896292257913e-06
7.610718925652319e-06
1.7377539538443905e-06
6.298237561346777e-06
3.171813510303727e-06
4.2566263330173055e-06
8.283033775403058e-06
-5.821088900076706e-06
1.0240081607537199e-05
-1.1872114431445689e-05
2.7797212390183695e-06
-1.45108034064094e-05
-2.021077703202946e-06
-1.5439664007103478e-05
-1.8849379223314763e-06
-1.8551660758275388e-05
-4.168206140764632e-06
-2.184536329942527e-05
-6.347182415881828e-06
-2.0539539750055815e-05
-5.644714654461814e-06
-1.577214844229073e-05
-2.1489803649005726e-06
-1.4495657215549629e-05
2.9827401505062496e-06
-1.5040980819961648e-05
1.3022752204445944e-06
-1.3686530385617505e-05
3.5326628168090946e-06
-1.666335402508293e-05
8.411952326975989e-06
-2.804389622004208e-05
1.4607635164692258e-05
-3.4266777247369656e-05
1.3670027874775665e-05
-3.746864485218316e-05
1.3288946771078901e-05
-3.487002592420772e-05
1.4662200323507885e-05
-3.3113818963980256e-05
1.434438049025611e-05
-2.9555821568170013e-05
9.648390653172019e-06
-2.351312534651071e-05
1.0331737476495757e-06
-2.341474242137491e-05
-0.0
0.0
0.0
0.0
0.0
0.0
0.0
0.0
0.0
0.0
0.0
0.0
0.0
0.0
0.0
0.0
0.0
0.0
0.0
0.0
0.0
0.0
0.0
0.0
0.0
0.0
0.0
0.0
0.0
0.0
0.0
0.0
0.0
0.0
0.0
0.0
0.0
0.0
0.0
0.0
0.0
0.0
0.0
0.0
0.0
0.0
0.0
0.0
0.0
0.0
0.0
-0.0
-0.0
-1.1111598947456243e-05
2.989725859524233e-06
-5.48239027371517e-06
7.2908742723798195e-06
-1.260974331453451e-05
1.2399752540700542e-05
-1.619509518060361e-05
1.5491425493123084e-05
-1.5350204561115622e-05
1.3127940986328438e-05
-1.0573620390653489e-05
6.674195070078959e-06
-9.884197045814243e-06
4.700843306735775e-06
-3.3436108276843874e-06
-5.273368471572227e-07
2.81871095694718e-07
-8.045513289073504e-06
1.0533289009965037e-07
-5.675196459581777e-06
4.258920569585073e-06
-9.557183767024201e-06
2.5291403357323757e-07
-9.323007157570156e-06
-1.8139344732469778e-06
-3.223850514981579e-06
-1.6548628579652807e-06
-5.082623529874178e-06
-6.08321163063683e-06
-9.943624255204745e-06
-1.9195667327038906e-06
-1.3212448111504935e-05
-8.356688706860932e-06
-1.6005857337835694e-05
-1.0181005628470627e-05
-2.065417885275824e-05
-2.662624410435321e-06
-2.3715425478847568e-05
2.351599803129878e-06
-2.831998440449509e-05
5.62375844644758e-06
-3.3000449657065274e-05
1.1717118827577096e-05
-2.623154882348691e-05
9.572654723644158e-06
-1.9977043505715715e-05
1.2811130232392455e-05
-7.721850148110182e-06
9.442709031201466e-06
-1.2636106325634255e-05
2.3877343077468455e-06
0.0
0.0
0.0
0.0
0.0
0.0
0.0
0.0
0.0
0.0
0.0
0.0
0.0
0.0
0.0
0.0
0.0
0.0
0.0
0.0
0.0
0.0
0.0
0.0
0.0
0.0
0.0
0.0
0.0
0.0
0.0
0.0
0.0
0.0
0.0
0.0
0.0
0.0
0.0
0.0
0.0
0.0
0.0
0.0
0.0
0.0
0.0
0.0
-0.0
2.3897478515010143e-05
-2.026568002572856e-06
2.1452999789543632e-05
3.868634676246455e-06
1.798055393624218e-05
8.74564067887802e-06
1.310381242644484e-05
7.844336805976839e-06
1.2752704641771314e-05
8.184397621538825e-06
4.938244137373471e-06
9.272671001168008e-06
-1.6772028560514333e-06
7.1962316630802835e-06
-9.347737414811878e-06
3.943068637976218e-06
-1.3824056691327856e-05
1.343297220936668e-06
-1.6821843988078922e-05
3.8038685041572726e-06
-2.261861722431263e-05
2.013580100196073e-06
-2.190292151338168e-05
-2.704012092368588e-06
-1.7636989220382276e-05
-7.278297105172732e-07
-1.4216692312987519e-05
1.919622697871141e-06
-1.6509758928311025e-05
1.342483697255538e-06
-1.6745566979042146e-05
-2.713901961326219e-06
-1.42033554144532e-05
1.1254276320654e-06
-1.723307917895909e-05
1.5047413050334921e-05
-2.3578957009280836e-05
1.641447837564939e-05
-2.9417838896809156e-05
1.6475715860309003e-05
-3.0921002773327084e-05
1.5316823429469874e-05
-3.2230205040324564e-05
1.2636826909013116e-05
-3.1389427453563025e-05
1.399528663839149e-05
-3.3548624889400626e-05
1.2852174008958514e-05
-3.287780140647542e-05
2.6387725303018077e-06
-2.7190789464777136e-05
2.3262736443243088e-06
-1.7065206696380606e-05
-1.5817904598857574e-06
-1.8199708014622445e-05
-0.0
0.0
0.0
0.0
0.0
0.0
0.0
0.0
0.0
0.0
0.0
0.0
0.0
0.0
0.0
0.0
0.0
0.0
0.0
0.0
0.0
0.0
0.0
0.0
0.0
0.0
0.0
0.0
0.0
0.0
0.0
0.0
0.0
0.0
0.0
0.0
0.0
0.0
0.0
0.0
0.0
0.0
0.0
0.0
-0.0
-0.0
1.0309359793626528e-06
-5.5007301129619724e-06
3.833495847999351e-06
-8.488539409950875e-06
8.650197148580615e-06
-8.116610498181932e-06
1.1012500691747054e-05
-6.503551918683054e-06
1.971914282493685e-05
-1.052665757009858e-05
1.8020647767529185e-05
-1.12037198145437e-05
1.2168289869988855e-05
-9.244161604586299e-06
7.575818362227194e-06
-7.690207661639972e-06
4.682552971641991e-06
4.2300647063566057e-07
-1.3315094054417857e-06
6.922385553917086e-06
-4.3390886583013885e-06
1.1840934547897985e-06
-5.49884871233107e-06
2.4418682723232515e-06
-1.218947500314223e-05
3.3822441223401195e-06
-8.44810767379852e-06
7.562800822865849e-07
-8.172579826891593e-06
-6.571797016042663e-07
-6.821192516332161e-06
-4.847138097523078e-06
-1.0595012086327796e-05
-5.720689004522779e-06
-9.746626608058377e-06
-5.652707815010585e-06
-1.1769662366940391e-05
-6.133116427161617e-06
-1.625765604917431e-05
-5.129267682008639e-06
-2.227989964428356e-05
2.9869118655112486e-06
-3.280794587048359e-05
7.4080830441840325e-06
-3.333289191605105e-05
1.3597097710473666e-05
-3.3948596759900936e-05
1.1566943144428779e-05
-2.619708578447793e-05
1.1889636395858433e-05
-1.4106328180316493e-05
1.0247118226701461e-05
-1.3319645438574209e-05
9.750246586527445e-06
-1.3450308115560914e-05
3.981057697126554e-06
-1.4361907163725534e-05
0.0
0.0
0.0
0.0
0.0
0.0
0.0
0.0
0.0
0.0
0.0
0.0
0.0
0.0
0.0
0.0
0.0
0.0
0.0
0.0
0.0
0.0
0.0
0.0
0.0
0.0
0.0
0.0
0.0
0.0
0.0
0.0
0.0
0.0
0.0
0.0
0.0
0.0
0.0
0.0
0.0
0.0
-0.0
-6.644399267194083e-06
1.1514460660508717e-05
-2.96035712549502e-06
2.5353263088235905e-05
3.465538604942528e-06
2.2694121315951147e-05
8.832036722948571e-06
2.330027390946219e-05
1.1896426498019384e-05
1.785802883769034e-05
1.351286426867474e-05
1.4395026238163869e-05
1.0315959082866892e-05
9.7009207076438e-06
1.0786754391425472e-05
-3.3083093007927856e-06
1.0048592853920926e-05
-1.3283989884862604e-05
8.22168557790729e-06
-1.5133837911882542e-05
5.429846338146239e-06
-1.5463741484834447e-05
2.917564528632473e-06
-2.01413133472108e-05
4.929072008442979e-06
-1.904080299246437e-05
2.6143649198285056e-06
-9.803328521403763e-06
2.434455152057835e-06
-1.0280561069369975e-05
6.586150105334607e-06
-1.0222691835385297e-05
4.604290307216371e-06
-1.3130966214907672e-05
2.376774441223233e-06
-1.262763896068508e-05
1.4283975618013233e-06
-1.4804928011785789e-05
7.442564798870724e-06
-1.981736629168747e-05
1.2745670474917433e-05
-1.716387900495773e-05
1.6067741108932294e-05
-2.029317438431769e-05
1.6208537495965336e-05
-2.3578955306733957e-05
1.564382210100147e-05
-2.5180794624846723e-05
1.5976338413733205e-05
-2.734340581161986e-05
7.6102148418059565e-06
-2.6619360112438506e-05
1.0426548667133783e-06
-2.8703001295175965e-05
-1.4339489077424146e-06
-2.3617870879609497e-05
-1.2613982308668176e-07
-1.929993093821399e-05
-3.273630045126777e-06
-1.578142234488108e-05
-0.0
0.0
0.0
0.0
0.0
0.0
0.0
0.0
0.0
0.0
0.0
0.0
0.0
0.0
0.0
0.0
0.0
0.0
0.0
0.0
0.0
0.0
0.0
0.0
0.0
0.0
0.0
0.0
0.0
0.0
0.0
0.0
0.0
0.0
0.0
0.0
0.0
0.0
0.0
0.0
-0.0
-1.4084349750135059e-05
-3.3962109194864376e-06
-9.572018820590003e-06
1.1481547390097764e-06
-1.1337937978813034e-05
5.320983592362386e-06
-1.3480634200601892e-05
9.472568848799933e-06
-9.258406235319752e-06
1.2837428139216902e-05
-1.1532270945109094e-05
1.3268054900829592e-05
-8.481108529376477e-06
1.805748905425727e-05
-8.340329166957624e-06
1.2486610734830574e-05
-5.522622983100442e-06
5.632818645474552e-06
-1.053458967394484e-06
3.029162667883929e-06
1.6958967751595433e-06
-2.968915364946748e-06
3.6376453021471503e-06
-1.1432955515331383e-05
2.519327277057824e-06
-9.500578535526572e-06
2.1241701837068302e-06
-1.1058779980635075e-05
8.083619247596222e-07
-8.839293275148617e-06
-6.71936180442141e-07
8.289927966604045e-07
-2.285040859314085e-06
-3.676858885004824e-06
-1.1068239170678923e-05
-7.960589071482674e-06
-1.1301788650951072e-05
-8.046486233608592e-06
-9.188954173321093e-06
-9.360118298009289e-06
-1.1725954011540168e-05
-1.611836010858809e-05
-1.090315572105788e-05
-2.4544331179074576e-05
-3.528551779030943e-06
-3.0107663244292137e-05
1.3585957689389175e-06
-3.196958795288776e-05
6.226904859321164e-06
-3.371524584456892e-05
1.2078366467586805e-05
-2.8887010079409634e-05
8.38367320186783e-06
-1.7564201831422865e-05
1.3205107692857014e-05
-1.8784894369761063e-05
1.5353283552158523e-05
-1.7757356990210938e-05
1.0336056385983336e-05
-1.0102953304509674e-05
5.347437009860966e-06
-1.071795605264863e-05
1.2891035803218755e-05
0.0
0.0
0.0
0.0
0.0
0.0
0.0
0.0
0.0
0.0
0.0
0.0
0.0
0.0
0.0
0.0
0.0
0.0
0.0
0.0
0.0
0.0
0.0
0.0
0.0
0.0
0.0
0.0
0.0
0.0
0.0
0.0
0.0
0.0
0.0
0.0
0.0
-0.0
-1.565345203947357e-05
1.0940762029677236e-05
-1.3181849979077934e-05
1.7988870007451384e-05
-7.824034646744575e-06
2.6348533964893547e-05
3.1656126114910245e-06
2.658762894285825e-05
1.1279869485558918e-05
2.1503006818045542e-05
1.2616749916536739e-05
1.74883822746132e-05
1.0797107747179356e-05
1.1321727273282317e-05
9.236000596931881e-06
9.006574269503451e-06
1.2872429920633488e-05
-1.737082785269e-08
1.2895396492468938e-05
-1.132409752365069e-05
1.269832184135323e-05
-1.4106157916652892e-05
1.3550289423704994e-05
-1.6015937765348595e-05
9.96542566098635e-06
-1.4064477393418485e-05
9.488045381142345e-06
-1.5642821054369615e-05
8.448045035841417e-06
-7.834566906752499e-06
4.172652117937713e-06
-4.128981613996519e-06
-6.974592547651252e-07
-8.261110511204387e-06
-1.4228474737055578e-06
-4.679745983455306e-06
2.8015583383543163e-06
-4.745108069491104e-06
2.2290278844249096e-07
-3.5064098656553703e-06
4.747214188672905e-06
-8.075958130879666e-06
6.132483377263328e-06
-1.2162837662231904e-05
1.073239416272015e-05
-9.950259905886783e-06
1.5044696368037333e-05
-1.5795260802450437e-05
1.411765605921436e-05
-1.671231623460002e-05
5.69023675323759e-06
-1.8311801815588654e-05
8.636351061152857e-07
-1.8415743912868202e-05
1.1665080242698728e-07
-1.6352612512587422e-05
-3.918154898391437e-06
-1.8115059466058378e-05
-6.1939304203500905e-06
-1.880627514281065e-05
-6.106698737072544e-06
-1.5876431298158966e-05
-9.152161631638275e-06
-5.9499883560391875e-06
-2.085027574704329e-05
0.0
0.0
0.0
0.0
0.0
0.0
0.0
0.0
0.0
0.0
0.0
0.0
0.0
0.0
0.0
0.0
0.0
0.0
0.0
0.0
0.0
0.0
0.0
0.0
0.0
0.0
0.0
0.0
0.0
0.0
0.0
0.0
0.0
0.0
0.0
-0.0
-1.2419805168785719e-05
1.0556463911270263e-06
-1.0282651718850401e-05
-6.207901294650101e-07
-1.0515075831993645e-05
4.772569847661104e-07
-1.073056802601079e-05
5.2107112841038765e-06
-1.3196971208566818e-05
6.950799763885531e-06
-6.668899435261784e-06
8.809995353714557e-06
-5.863299632448255e-06
1.2507594401075671e-05
-7.30062271954882e-06
1.7504986021195486e-05
-2.2885968437003426e-06
1.5412693309711495e-05
-4.801245540463451e-06
9.040107854241507e-06
1.2161277998114887e-06
4.463462444806673e-06
8.518509908499529e-06
-9.120260554349588e-06
4.439635168771567e-06
-1.1103027099191896e-05
3.97365479601536e-06
-9.05806175309886e-06
3.5770996067395784e-06
-8.192796720544309e-06
3.2022521459491828e-06
-2.5293766054520556e-06
-1.9949119480255405e-06
2.0989205824424246e-06
-3.894655933634091e-06
9.870703064820845e-07
-6.198706331508007e-06
3.765980567443024e-07
-8.22005567489186e-06
-1.887074971349349e-06
-9.30944480744297e-06
-4.799447003719853e-06
-1.502082846647502e-05
-1.358419909507621e-05
-8.751473757792213e-06
-2.100078386085521e-05
-3.56895638035985e-06
-2.6131106634290422e-05
2.932516858395686e-07
-2.5134044595088016e-05
5.6227076689040085e-06
-2.4116332834518824e-05
6.358618866263371e-06
-2.595708957883592e-05
9.712384659169005e-06
-2.167415359870597e-05
1.0306584553760532e-05
-1.9476321606186534e-05
1.3084102854575213e-05
-1.8797303525559046e-05
1.3983976673067602e-05
-1.3388751605373428e-05
1.4852533910344158e-05
-1.3147735340342685e-05
1.1654284826269135e-05
-1.0158035604434355e-05
8.433534504603593e-06
0.0
0.0
0.0
0.0
0.0
0.0
0.0
0.0
0.0
0.0
0.0
0.0
0.0
0.0
0.0
0.0
0.0
0.0
0.0
0.0
0.0
0.0
0.0
0.0
0.0
0.0
0.0
0.0
0.0
0.0
0.0
0.0
0.0
-0.0
-2.422336696600693e-05
9.046538553981912e-06
-2.004116171249701e-05
1.7536253062657685e-05
-1.1396059127953348e-05
2.6209298060576735e-05
-1.0129172988218728e-05
2.9787626703006525e-05
6.892194558540022e-07
2.4505914481354228e-05
6.0290948184312135e-06
2.2595609566151932e-05
4.296026904597796e-06
1.7467140394802633e-05
4.574142523432165e-06
1.508687194590814e-05
6.703609320629521e-06
1.1182857175776753e-05
1.3673834451314083e-05
-1.153582991161923e-06
2.1375898514200588e-05
-8.559181495655467e-06
1.8930446763296442e-05
-9.675678716404535e-06
1.7650799564840432e-05
-9.858952887729999e-06
1.4721267841828486e-05
-9.70776888146962e-06
1.1115862676241519e-05
-5.61617206953087e-06
6.431752906938929e-06
-1.200752054003782e-06
2.0945137754247363e-06
-1.8129570028124591e-06
-3.2646734630004866e-07
2.5812249073967856e-06
6.232654981205516e-07
4.666303737890633e-06
1.8110110050606458e-06
4.751492903643974e-06
6.500301387218949e-08
7.387063666957974e-06
-1.9760302671214578e-06
-1.126011384093663e-06
-1.3986063823702524e-06
-4.315402648878575e-06
2.315168559003179e-06
-5.343066178759593e-06
9.43517086845043e-06
-7.147075553054997e-06
1.0750580100480381e-05
-1.2409133150413527e-05
2.420200668658024e-06
-9.41073594146919e-06
4.062291015438347e-06
-5.138101393385037e-06
6.567814014455824e-08
-4.867102695979129e-06
-7.869132341576302e-06
-6.30621923127722e-06
-1.3357961152053881e-05
-1.3035470384160952e-05
-1.4426482671320611e-05
-1.1980701774062499e-05
-1.517378802963941e-05
-6.327048829455377e-06
-2.2357445750756604e-05
-1.4986844086658748e-06
-3.0280734486379375e-05
0.0
0.0
0.0
0.0
0.0
0.0
0.0
0.0
0.0
0.0
0.0
0.0
0.0
0.0
0.0
0.0
0.0
0.0
0.0
0.0
0.0
0.0
0.0
0.0
0.0
0.0
0.0
0.0
0.0
0.0
0.0
-0.0
-6.812440525774668e-06
8.451486259780637e-07
-6.977783677604537e-06
1.7755029326274113e-06
-5.7942422797536155e-06
3.357040179520044e-06
-8.955351488005564e-06
2.850748580967125e-06
-4.614189387219172e-06
-5.675618996792982e-07
-5.459463184060623e-06
3.703854148396234e-06
3.9358600135594137e-07
6.603089818626613e-06
2.592841533918707e-06
1.362260969737784e-05
-1.8415648387776817e-06
1.4509214569298265e-05
-2.397813261027977e-06
1.2107869715487916e-05
4.023634529094059e-08
6.180901206564483e-06
2.017399515203122e-06
1.436290727581931e-06
5.041785223969046e-06
-6.951414519606518e-06
4.905173767901956e-06
-9.669954207079708e-06
2.4906515146460005e-06
-5.9782901593760475e-06
1.3264982008906083e-06
-4.839352507034851e-06
-3.3114843689737906e-06
-2.6797650301899507e-06
-2.6528647606255284e-06
1.0537232117357514e-06
-5.660959140141286e-06
3.9771657607178605e-06
-6.89913802748922e-06
3.0617333889183356e-06
-8.735161823067616e-06
-2.7981706595376934e-07
-7.940213643978436e-06
-1.4410185813630733e-06
-1.1441406051820754e-05
-7.290535579851769e-06
-9.278834953238085e-06
-1.598144878717171e-05
-3.7337058621675476e-06
-2.0411157027854693e-05
-5.008319652841279e-07
-2.2155647352808e-05
1.3712784054149454e-06
-2.0173920901926457e-05
3.445333342304554e-06
-2.4330728664971256e-05
4.659172430249285e-06
-2.3361032520846678e-05
6.099490893331783e-06
-2.2518156261251267e-05
7.2228028486755146e-06
-1.8290541326243728e-05
9.50612171264425e-06
-1.5741646423662313e-05
6.571580704773057e-06
-1.6545303528584572e-05
7.203432195969783e-06
-1.4111376354241941e-05
3.3801376194995193e-06
-6.704730290776677e-06
-1.7977512191705305e-06
0.0
0.0
0.0
0.0
0.0
0.0
0.0
0.0
0.0
0.0
0.0
0.0
0.0
0.0
0.0
0.0
0.0
0.0
0.0
0.0
0.0
0.0
0.0
0.0
0.0
0.0
0.0
0.0
0.0
-0.0
-2.4517666272877598e-05
1.171385232565064e-05
-2.212286285494509e-05
1.6758108529786833e-05
-1.888796647111078e-05
2.2328603373816653e-05
-1.5851303228059013e-05
2.8051899532409744e-05
-1.4045381693424373e-05
2.823463759961216e-05
-3.5139355668138144e-06
2.5329424170475834e-05
1.7546720788401968e-06
2.136617516204079e-05
5.712460791008752e-06
1.53238131669267e-05
8.519825202434011e-06
1.4045850398807112e-05
9.05273787077471e-06
6.323818906828525e-06
9.417169717990494e-06
-3.2194330980472374e-06
1.4810034331422557e-05
-7.946952264082891e-06
1.729121085814346e-05
-4.079539600657458e-06
1.6752431428423373e-05
4.950434177847963e-07
1.5701468018489463e-05
-1.083151007483081e-06
1.2241147742719641e-05
3.732187418193779e-06
1.1581237562075439e-05
3.926574484975733e-06
7.6122472153056955e-06
7.779319923343884e-06
5.825622619043133e-06
9.127695094274117e-06
1.4995068225658563e-06
8.854309238423702e-06
-4.942213376925335e-06
1.3698529773315894e-05
-4.671371834042684e-06
1.0894226857103904e-05
-5.295309625491504e-06
6.181596811152522e-06
-2.9292543304001733e-06
2.932295471718773e-06
9.956636923576424e-07
3.907768862495349e-06
6.286597637737891e-06
-7.412498614640081e-07
3.8090166095039184e-06
-5.11995039620548e-06
-9.41672385039599e-07
2.5134632643070273e-06
-2.6322851703399393e-06
-2.1986334208662713e-06
-1.8923902266817552e-06
3.677184756898334e-07
-7.3380937014192136e-06
-3.5258678738760042e-06
-1.749456563601132e-05
-5.056349204335028e-06
-1.7429108780806176e-05
-4.670170843026655e-06
-1.4175082597596203e-05
-3.2579687250150445e-06
-1.5679973249705267e-05
-6.773921260910002e-06
-2.3761392445522587e-05
-7.00974818200006e-06
-2.0514442830033392e-05
0.0
0.0
0.0
0.0
0.0
0.0
0.0
0.0
0.0
0.0
0.0
0.0
0.0
0.0
0.0
0.0
0.0
0.0
0.0
0.0
0.0
0.0
0.0
0.0
0.0
0.0
0.0
-0.0
-5.6242595653798784e-06
-1.6693396757476403e-06
-3.079074417242006e-06
-8.058927637667642e-07
-2.2052295001434784e-06
-1.260236689890373e-06
-3.3113212505212384e-06
2.544123120420073e-06
-6.048888345003591e-06
6.397514569617851e-06
-2.5768561531955777e-06
2.1425706412178935e-06
3.8858851420269585e-06
6.6185957761162675e-06
1.2785317288363313e-06
1.1237379226403366e-05
4.970083586738638e-06
1.6185461107823346e-05
4.505829829840662e-06
1.2919621756949579e-05
5.425902199696064e-06
7.953019399093885e-06
3.6803687770449873e-06
7.475449165480524e-06
3.890943450449448e-06
3.4671150122747764e-07
1.17525727037939e-06
-2.9681622140792e-06
7.728901874514969e-07
-3.0218026165007877e-06
-1.3351771202314433e-07
9.582113953827008e-07
-7.92259191340052e-07
1.058796762850083e-07
-9.578042550479008e-07
-1.7953104159420016e-07
-2.3751634919629934e-06
6.411930248378281e-06
-3.8288046762597775e-06
5.9567849837415694e-06
-5.573931423254661e-06
3.3878552638900265e-06
-6.300089625616296e-06
2.8233176888599277e-06
-6.599415975411691e-06
3.037944345055092e-07
-1.3739191689939258e-05
-3.9076633845527805e-06
-6.940795911481166e-06
-9.705225934892214e-06
1.1464023809763608e-06
-1.66289185467885e-05
3.657747993951475e-08
-1.8357281130985435e-05
-3.7063880667554626e-07
-1.8449544884928975e-05
1.9826815477857926e-06
-2.2169867766736717e-05
4.452595125769098e-06
-2.4134899882034116e-05
7.109001495597029e-06
-1.9115590893084776e-05
1.0228531535331974e-05
-2.2078619800596833e-05
6.6286985156234785e-06
-1.964940463427175e-05
2.1671504018931206e-06
-1.6386478292757873e-05
2.615654060774418e-06
-1.7015711829250243e-05
-1.3666405188598957e-07
-1.0300357674839965e-05
-1.87607144454293e-06
-4.338363093101144e-06
-6.0983043171645675e-06
0.0
0.0
0.0
0.0
0.0
0.0
0.0
0.0
0.0
0.0
0.0
0.0
0.0
0.0
0.0
0.0
0.0
0.0
0.0
0.0
0.0
0.0
0.0
0.0
0.0
-0.0
-1.8646407316848592e-05
1.521892026155673e-05
-2.1015686926304377e-05
2.470179133402028e-05
-2.417148212083534e-05
2.606049139091854e-05
-1.7022332277234618e-05
2.6497762045436313e-05
-1.2746617044335194e-05
2.654285537306893e-05
-1.0655083223894839e-05
2.543295467737295e-05
-4.914878994095223e-06
2.2484360226886535e-05
-1.1080435655118349e-06
2.245547284733343e-05
3.1641227327327667e-06
1.3481460469914186e-05
6.9908006695747574e-06
7.313285478953481e-06
6.192121897029286e-06
3.7548912246558955e-06
5.489391784980843e-06
-2.187982589628458e-06
4.1467902110269916e-06
-4.873826114691757e-06
8.590251146753348e-06
-4.3827868356197964e-06
1.0033927013677198e-05
2.312223405760211e-07
1.4697545236956678e-05
-1.3586465901014714e-06
1.1679440873422484e-05
5.0538838325859476e-06
1.2143040877883647e-05
1.0234363470711368e-05
1.0971180290787544e-05
9.484039630855217e-06
4.3482698378634596e-06
1.2426596188567985e-05
5.771334619591902e-07
1.4683524311145315e-05
-8.578492275453436e-06
1.5548863457135203e-05
-9.351142328562689e-06
1.337250797280916e-05
-8.252192986027137e-06
1.4707030422622922e-05
-6.776104661803442e-06
9.663813986739429e-06
-4.25721339079127e-06
1.0033008784208096e-05
1.6194704260668025e-06
7.746985427209435e-06
2.232593122525766e-06
6.284218884906648e-06
-3.8976942963677635e-06
6.048738852204635e-06
-6.035690963792598e-06
1.6035525726658762e-06
-3.0629719874736255e-06
-2.4750093778905057e-06
-8.266590358601133e-06
-7.574617736620239e-07
-1.4346955997308622e-05
-4.544316308461709e-06
-1.999109038131008e-05
-7.099317468209854e-06
-1.7962867441994206e-05
-5.552704683091317e-06
-1.624396595489975e-05
-7.976870062101614e-06
-1.860023790299187e-05
-1.1198402870074149e-05
-1.512406555398629e-05
-4.011621254403989e-06
-1.273810816566708e-05
0.0
0.0
0.0
0.0
0.0
0.0
0.0
0.0
0.0
0.0
0.0
0.0
0.0
0.0
0.0
0.0
0.0
0.0
0.0
0.0
0.0
0.0
0.0
0.0
-8.915333513985037e-06
-2.0510765599750394e-07
-4.853959436163581e-06
-1.4164113724494449e-06
-5.18874701055943e-06
4.002833866884208e-06
-4.1422408833322225e-06
5.289580398614467e-07
-1.9360290393520377e-06
7.844324698876747e-06
2.093713628515179e-06
7.78915352967247e-06
2.3809679803841104e-06
4.048321860127477e-06
1.0585992480820709e-06
5.885092751094223e-06
1.2729863639266868e-06
1.1177220972521226e-05
3.027827704434539e-06
1.5072851044560164e-05
4.209287744302875e-06
1.1505886669778304e-05
6.38406294412228e-06
7.66587431119913e-06
5.015310433915559e-06
9.812483656721759e-06
2.7088666625105326e-06
7.877089371728057e-06
3.3368922951631897e-06
1.8329820602237262e-06
2.682812561881836e-06
1.7048372373994774e-07
-2.424347920309675e-06
7.645620885190072e-06
-1.2389189977486733e-06
7.439318555504354e-06
-4.513389811828168e-06
6.7271431617970755e-06
-8.918875169341558e-07
7.739568412035874e-06
3.0035381970010796e-06
7.439479342032249e-06
1.4428094607051513e-07
6.296184112547678e-06
-1.8685465186744654e-06
-1.8990742476329937e-06
-5.906935283476136e-06
-3.421204461942569e-06
-5.771254006551208e-06
-6.6247349926750185e-06
-7.001608133491939e-06
-1.2607470585661086e-05
-4.113591390395737e-06
-1.6364930594615295e-05
4.2775481534099127e-07
-1.6189746904554227e-05
2.5135159475713768e-06
-1.6920722539528758e-05
2.1298167040527942e-06
-1.8838113242097812e-05
1.5276506966906775e-06
-1.7911002236599928e-05
5.839049184694529e-06
-2.0120022435944948e-05
3.701355555991886e-06
-2.416604876254312e-05
5.230000885304067e-06
-2.6130984652704132e-05
1.8475340801045394e-06
-2.4152080097875888e-05
-2.9307970413085226e-07
-1.4027249054646038e-05
-1.3649164258033297e-06
-1.0237795309165039e-05
-4.177494251986426e-07
-1.2451560202704957e-05
2.482621227133455e-07
-7.0849475095704276e-06
6.850178757095528e-07
0.0
0.0
0.0
0.0
0.0
0.0
0.0
0.0
0.0
0.0
0.0
0.0
0.0
0.0
0.0
0.0
0.0
0.0
0.0
0.0
0.0
-0.0
-1.0666136409870567e-05
1.0534639137993616e-05
-1.1996187017195231e-05
2.427965661258788e-05
-1.6845307608342283e-05
3.091339436385377e-05
-1.7709317502360635e-05
3.2645230310963196e-05
-1.0348145198757748e-05
3.447453042370035e-05
-9.705785731869435e-06
3.372847875470208e-05
-7.132901682956129e-06
2.6185955946246347e-05
-4.776700582394632e-06
2.1954991821044426e-05
-5.785092537315691e-06
1.9092206573280318e-05
-1.9301798231281073e-06
1.7609840249516047e-05
-1.1941422213904266e-06
9.621152757288315e-06
-8.107222063927911e-07
4.537633551040322e-06
3.6394003505013926e-08
5.205244296781291e-06
2.9926868249952055e-06
7.788561362271954e-07
4.281070289412262e-06
7.390754227520223e-07
8.053726403619761e-06
-3.9675993007928453e-07
1.158947507585182e-05
3.043862120277277e-06
9.673018051370256e-06
5.731385650953209e-06
1.1237623055730026e-05
5.5280396285247255e-06
1.3375749435228546e-05
1.0567547396663832e-05
4.103091069674875e-06
1.157245833172402e-05
-4.1313924538544856e-06
1.5624490024134048e-05
-1.1079868039551068e-05
1.5846677214827273e-05
-1.3168559854580056e-05
1.548059393447526e-05
-1.2661985851973283e-05
1.4400559755012747e-05
-9.988558518162932e-06